      21
 i =        1, E =      -107.3140227419
  C         6.2600092618        6.6911051715        8.5407122014
  C         7.4465476972        7.3733482817        7.9238009090
  N         7.3944363388        8.7282312690        7.4250266319
  C         8.7548665248        8.8435245559        6.9431845887
  C         9.8014941106        8.8749876984        8.3422086844
  N        11.0185606601        8.1891106091        8.7801562722
  O        10.8063255532        6.5966258233        7.7745008215
  C         9.4391286132        7.1763761492        6.5320999777
  C         8.4545793390        6.4833707236        7.2817299501
  C         8.9203489956        7.2488949082        8.4577069517
  C        10.7237821421        8.5383283278        7.2881281872
  C        10.8177666073        7.4690522058        6.3137740548
  O        11.6013062782        7.3805693552        5.3705073530
  H         5.4281007845        7.3625584655        8.2842631438
  H         6.4412711468        6.5231391416        9.6095316259
  H         6.1465126158        5.7431614366        7.9841046821
  H         7.3625108934        9.3563908075        8.2517709161
  H         8.9490894802        9.5996176663        6.1603589935
  H         8.5269419094        5.4182703641        7.4794285433
  H         9.2136854097        6.8088549579        9.4202852013
  H        10.8703500000        9.5132745637        6.7686162450
      21
 i =        2, E =      -107.4582404986
  C         6.1998547285        6.6704638277        8.5502865326
  C         7.4261170664        7.3608184426        8.0064340493
  N         7.4202147038        8.6807489947        7.3711707282
  C         8.7652609964        8.8031962835        6.8856761848
  C         9.6262474863        8.6749876984        8.3184134621
  N        11.1002346119        8.2149007938        8.6441412412
  O        10.8477290503        6.5641407986        7.7360400182
  C         9.3860535855        7.3276942313        6.5960892960
  C         8.4633381239        6.5085143747        7.3273550907
  C         8.8555061974        7.2481365000        8.6001940728
  C        10.8754686982        8.6697009823        7.2302400585
  C        10.8617244783        7.4518302551        6.3413852357
  O        11.5933906129        7.3580936739        5.3481916739
  H         5.4266808524        7.3858537343        8.2551773746
  H         6.4444416852        6.5224204209        9.6110621839
  H         6.0657703436        5.7089366890        8.0267596827
  H         7.3271086433        9.3294316925        8.1806529964
  H         8.9749155979        9.6251223640        6.1772678975
  H         8.4930679302        5.4270804672        7.4511653723
  H         9.2029657751        6.7237484453        9.4993406734
  H        11.0036078021        9.6602441478        6.7803195461
      21
 i =        3, E =      -107.5225536353
  C         6.1572501270        6.6750725658        8.5703290720
  C         7.4191572442        7.3322749114        8.0188541019
  N         7.3828131373        8.6329547385        7.3169756058
  C         8.7653654430        8.7553095912        6.9179841905
  C         9.5813902725        8.5797647900        8.3260999905
  N        11.0844500416        8.1738489880        8.5583914023
  O        11.0477290503        6.5756133205        7.6457121948
  C         9.3120869525        7.4695515396        6.6024735367
  C         8.5041704389        6.5168537994        7.3687783836
  C         8.8123075476        7.2763764769        8.6961680738
  C        11.0067485691        8.7326878426        7.2194860765
  C        10.8610566556        7.4752967690        6.3291348256
  O        11.5624439386        7.2928185963        5.3187554433
  H         5.4162920409        7.3994121070        8.2419504510
  H         6.3946151158        6.5209405144        9.6221489808
  H         5.9820749451        5.7023123344        8.0724909167
  H         7.2975052979        9.3417811995        8.0816161599
  H         8.9869536815        9.5872884637        6.2323161555
  H         8.4902837801        5.4248104183        7.4173749416
  H         9.1746124546        6.6781550496        9.5429631703
  H        11.1207684414        9.7538966202        6.8343985097
      21
 i =        4, E =      -107.5551752015
  C         6.1215799678        6.6769360896        8.5749158675
  C         7.4283248662        7.3111054290        8.0411889137
  N         7.3628775945        8.6064087996        7.3205245994
  C         8.7465309208        8.7795562840        6.9212314445
  C         9.5508280932        8.5082104025        8.3400803519
  N        11.0921121415        8.1534150743        8.4647505000
  O        11.2477290503        6.5976742746        7.6237050659
  C         9.3040934660        7.4720635559        6.5992247213
  C         8.5157841565        6.5091234780        7.3809495861
  C         8.8016814970        7.2603570596        8.7305627096
  C        11.0878751058        8.7563177419        7.2124884200
  C        10.8788562437        7.4663752294        6.3446615964
  O        11.5021459376        7.2280338267        5.2695541241
  H         5.4020903688        7.4155772257        8.2418299464
  H         6.3523294970        6.5376040159        9.6254071768
  H         5.9036348816        5.6938496696        8.1049959747
  H         7.2195615222        9.3652473954        8.0281979596
  H         8.9978248300        9.6126133572        6.2532826020
  H         8.5159908660        5.4182409312        7.3715627194
  H         9.1258218878        6.6781354661        9.5728377973
  H        11.1991863597        9.8243597336        6.9174213661
      21
 i =        5, E =      -107.5745747483
  C         6.0804572590        6.6863202008        8.5831634851
  C         7.4234222133        7.2855001540        8.0241559216
  N         7.3458263421        8.5929350525        7.3245912949
  C         8.7315409079        8.7552083606        6.9213204261
  C         9.5709178759        8.4664488660        8.3186459511
  N        11.1065589524        8.1566460366        8.3874226339
  O        11.4477290503        6.6802857959        7.6215937944
  C         9.3092136031        7.4861137185        6.6078726033
  C         8.5344015672        6.4861379459        7.3978805203
  C         8.7764503214        7.2222346669        8.7707746828
  C        11.2106721965        8.7666945235        7.1967614405
  C        10.9053634585        7.4614966882        6.3400888226
  O        11.4262411617        7.1578863277        5.2052156748
  H         5.3764020764        7.4405596381        8.2475238564
  H         6.3023198795        6.5663648344        9.6352575627
  H         5.8303144649        5.7004540009        8.1305186783
  H         7.1110886328        9.3649688509        7.9873452009
  H         8.9969912162        9.6419296779        6.3182146618
  H         8.5453742721        5.3983168205        7.3064840172
  H         9.0734602933        6.6679772587        9.6293500541
  H        11.2521625663        9.8662836821        6.9907792575
      21
 i =        6, E =      -107.5906697025
  C         6.0245499435        6.6976722439        8.5888174754
  C         7.4163295083        7.2594621250        8.0330160953
  N         7.3203181370        8.5615168434        7.3121798034
  C         8.7122618541        8.7842369572        6.9391296321
  C         9.5966384022        8.3964565087        8.3210884654
  N        11.1613611986        8.1629589532        8.3479050518
  O        11.6003600304        6.8016914039        7.6262040813
  C         9.3399580580        7.4565402704        6.6137511825
  C         8.5439107575        6.4661328709        7.4168848581
  C         8.7690263905        7.1890194040        8.7772025612
  C        11.3017695057        8.7625228899        7.1761586193
  C        10.9181005174        7.4776079065        6.2989244045
  O        11.3883322864        7.1138215597        5.1951877291
  H         5.3333215827        7.4758099242        8.2531140908
  H         6.2681067872        6.6042119140        9.6428412956
  H         5.7798038503        5.7185436730        8.1355650743
  H         7.0287016696        9.3235951789        7.9463762232
  H         8.9812966034        9.6762130625        6.3652292044
  H         8.5639305325        5.3847711468        7.2462064214
  H         9.0159283980        6.6693751391        9.6807290787
  H        11.2668234664        9.8648358207        7.0442419239
      21
 i =        7, E =      -107.6174380302
  C         5.9617982890        6.7133856707        8.5928288825
  C         7.4154517568        7.2205258292        8.0352251295
  N         7.3229147732        8.5183428288        7.3061956390
  C         8.7043888556        8.7839361051        6.9500499655
  C         9.6013737224        8.2916677644        8.3074078831
  N        11.1964382902        8.1583998530        8.3019655666
  O        11.8003600304        6.9610498442        7.6658143875
  C         9.3798574428        7.4875929023        6.6404559661
  C         8.5697391672        6.4360835701        7.4329686335
  C         8.7664573736        7.1155590892        8.7960018158
  C        11.4251631152        8.7793677020        7.1313350085
  C        10.9536197152        7.4973185658        6.2453762153
  O        11.3163489105        7.0343951621        5.1546633486
  H         5.2943269494        7.5220249802        8.2475928937
  H         6.2136404660        6.6518001366        9.6488546101
  H         5.7061944544        5.7460854047        8.1413585773
  H         6.9211388547        9.2722241404        7.8955785702
  H         8.9591969385        9.7141381058        6.4405780517
  H         8.5790654603        5.3707767749        7.1791826517
  H         8.9206404576        6.6691559329        9.7762252678
  H        11.3004169335        9.8853381284        7.1015377893
      21
 i =        8, E =      -107.6228796758
  C         5.8998857412        6.7282663981        8.5968866275
  C         7.4124576872        7.1834609661        8.0376369599
  N         7.3243839544        8.4770012716        7.2998513218
  C         8.6962470404        8.7838053797        6.9618321099
  C         9.6087679947        8.1924107533        8.2903130304
  N        11.2245107689        8.1519490513        8.2561065495
  O        12.0003600304        7.1156042057        7.7026484270
  C         9.4199941498        7.5146958667        6.6714423135
  C         8.5931022141        6.4064356573        7.4508482779
  C         8.7617857899        7.0456282211        8.8154127623
  C        11.5472149931        8.7964533100        7.0864344594
  C        10.9860411964        7.5190229818        6.1918228784
  O        11.2473618545        6.9571127911        5.1174834330
  H         5.2572500097        7.5673795466        8.2414032362
  H         6.1607538914        6.6975338761        9.6546809492
  H         5.6355946731        5.7724792931        8.1464825646
  H         6.8182306337        9.2220601320        7.8462500317
  H         8.9373670181        9.7504581641        6.5145030740
  H         8.5933172535        5.3565667371        7.1146852003
  H         8.8273708071        6.6680159822        9.8680270590
  H        11.3358244005        9.9050891259        7.1547038337
      21
 i =        9, E =      -107.6414225408
  C         5.9313117606        6.7323491650        8.5922562735
  C         7.4145002776        7.1947616454        8.0122135981
  N         7.3411544643        8.4884722978        7.3026176586
  C         8.6977110369        8.7605872946        6.9680118244
  C         9.6092889807        8.2020820111        8.2698200156
  N        11.2236335013        8.1974940650        8.2960547946
  O        11.9672367296        7.1607298685        7.7706132400
  C         9.4282685430        7.5075970491        6.6947693143
  C         8.5805454129        6.3865703317        7.4478653914
  C         8.7684368436        7.0151845490        8.7962888867
  C        11.4993795732        8.7701352188        7.0705600416
  C        10.9590415695        7.5296323790        6.1558919768
  O        11.2399376178        6.9732302009        5.1517394208
  H         5.3196723803        7.5835138478        8.2171814395
  H         6.1548519500        6.7046756843        9.6491723067
  H         5.6793998225        5.7973219852        8.1199535307
  H         6.8332021588        9.1908484342        7.8621096542
  H         8.9209776021        9.7426097235        6.5426819313
  H         8.5843284015        5.3542756604        7.1294352052
  H         8.8028016834        6.6721155972        9.8777255253
  H        11.3245706504        9.8402288505        7.1216172221
      21
 i =       10, E =      -107.6550397136
  C         5.9190145094        6.7440935923        8.5861737765
  C         7.4055835088        7.1782439819        8.0062390195
  N         7.3437335134        8.4621562902        7.3055533558
  C         8.6953111890        8.7585873079        7.0040718907
  C         9.5836042346        8.1864088338        8.2501911766
  N        11.2451693549        8.3081717445        8.3604313150
  O        12.0253733188        7.2467155665        7.8678327127
  C         9.4620652297        7.5191661299        6.7488369148
  C         8.5815695742        6.3752175120        7.4502232120
  C         8.7732551830        7.0081821715        8.7847348175
  C        11.4728148187        8.7439065149        7.0604208355
  C        10.9529098949        7.5648054401        6.1082997867
  O        11.1855868214        6.8983294502        5.1001451200
  H         5.3337032851        7.6008638474        8.2165683319
  H         6.1342055867        6.7141612906        9.6457867451
  H         5.6945308970        5.8109969760        8.1012522082
  H         6.8458474752        9.1627769147        7.8485647640
  H         8.9129898933        9.7201121877        6.5760469419
  H         8.5612268503        5.3505357510        7.1160091987
  H         8.7883145518        6.6568320164        9.8553856679
  H        11.3447272239        9.7937872452        7.1057836181
      21
 i =       11, E =      -107.6609609548
  C         5.8668336726        6.7562593884        8.5745461069
  C         7.3851747710        7.1402328500        8.0142418923
  N         7.3603133615        8.4022606721        7.3039592453
  C         8.7107694549        8.7559649138        7.0715097128
  C         9.5750710700        8.1170902819        8.2048655405
  N        11.2906218904        8.4509203730        8.4405319551
  O        12.1881680120        7.4467155665        8.0414243778
  C         9.4805974514        7.5118861300        6.8134863402
  C         8.5724204315        6.3405927491        7.4683395643
  C         8.7703571538        6.9778306721        8.7833637497
  C        11.4871427065        8.6833483567        7.0126643908
  C        10.9053805754        7.5852526069        6.0120814278
  O        11.1337361677        6.8930768535        5.0782151548
  H         5.3337151797        7.6422219169        8.2210503929
  H         6.0813931828        6.7338971132        9.6409846346
  H         5.6451201913        5.8159198713        8.0867827970
  H         6.7937458654        9.1230056582        7.7970528518
  H         8.9088916206        9.7172358339        6.6587576155
  H         8.5320398734        5.3250510613        7.0593589924
  H         8.7549644034        6.6202721482        9.8375988447
  H        11.4314703668        9.7555257462        7.0891429455
      21
 i =       12, E =      -107.6830562555
  C         5.8896226210        6.7444542914        8.5720453189
  C         7.3742845125        7.1560174766        8.0144407934
  N         7.3430467475        8.4147181235        7.2884188370
  C         8.7320732124        8.7675663244        7.1116320596
  C         9.5996201347        8.1421824925        8.2259987445
  N        11.2298645121        8.3975393156        8.4889244529
  O        12.0637037051        7.4022059563        8.0348625673
  C         9.4549933214        7.5015477489        6.7771012603
  C         8.5555664870        6.3665477216        7.4409300903
  C         8.7454967647        7.0196995205        8.7898829378
  C        11.4963090648        8.6826301014        7.0410384038
  C        10.8797885803        7.5809052262        6.0492927205
  O        11.1519118873        6.9354180508        5.0786112552
  H         5.3489370381        7.6226204529        8.2369339764
  H         6.1009406190        6.6978780389        9.6379124864
  H         5.6631820642        5.7888256530        8.0918243980
  H         6.8311196813        9.1493855985        7.7998454833
  H         8.9352369033        9.7048304405        6.6468669002
  H         8.5176158690        5.3400817812        7.0814047399
  H         8.8193180064        6.5998983747        9.7807615732
  H        11.4717073537        9.7780454509        7.0362250784
      21
 i =       13, E =      -107.7099640076
  C         5.9143357035        6.7537420422        8.5630322326
  C         7.3724885207        7.1923507932        8.0056829580
  N         7.3173081415        8.4560658752        7.2713354195
  C         8.7395479899        8.7526700223        7.1466588198
  C         9.5353957338        8.1076787275        8.2510411337
  N        11.0976773973        8.3996870048        8.5924558961
  O        12.0728402499        7.4762895579        8.0345657677
  C         9.4457440315        7.4657133786        6.7255327520
  C         8.5165689751        6.3825025138        7.3772120180
  C         8.7168889779        6.9818308748        8.7998895282
  C        11.5265513990        8.6455831891        7.1059331170
  C        10.8276433738        7.6150121794        6.0731401917
  O        11.1569704324        7.0001051862        5.0816385393
  H         5.3565828391        7.6179463871        8.2481216040
  H         6.1140289960        6.6601243651        9.6214386926
  H         5.6778691683        5.7957722714        8.0873725292
  H         6.8230819721        9.1623027423        7.8099741201
  H         8.9813922959        9.7309390738        6.6804393790
  H         8.5024120409        5.3603501319        7.0949434045
  H         8.8688467044        6.5570003821        9.7762387808
  H        11.6032960301        9.7045383164        6.9586385287
      21
 i =       14, E =      -107.7251863367
  C         5.9140863103        6.7456827003        8.5607248975
  C         7.3412115341        7.1882213219        7.9869976215
  N         7.3312364593        8.4757692484        7.2981015913
  C         8.7662090395        8.7866810035        7.2095056603
  C         9.5160791199        8.0750613287        8.2689922680
  N        10.9705529314        8.4270819355        8.7065143207
  O        12.0622149064        7.6243680895        8.0459582968
  C         9.4000251927        7.4693525145        6.6876673561
  C         8.4816203152        6.3712492682        7.3359477869
  C         8.6553914603        6.9578338705        8.8099806573
  C        11.5704951485        8.5566578310        7.1768506505
  C        10.7406532862        7.6551811076        6.0729865866
  O        11.1665331506        7.0757595083        5.0821235904
  H         5.3680143861        7.6408610793        8.2548065584
  H         6.1352017665        6.6263381592        9.6152130694
  H         5.7040783017        5.8026523382        8.0562474369
  H         6.7958977746        9.1951643488        7.8234803851
  H         9.0390913890        9.7529994043        6.7095256325
  H         8.4599489953        5.3350018598        7.0713857818
  H         8.8971190532        6.4951455349        9.7626541338
  H        11.8032960301        9.5883929847        6.8935026470
      21
 i =       15, E =      -107.7460169852
  C         5.9228275001        6.7441477412        8.5463217766
  C         7.3493449887        7.1970007637        7.9945240226
  N         7.3105998417        8.4982901476        7.3272896083
  C         8.7225011981        8.7920211113        7.1884258105
  C         9.5425896966        8.0957681663        8.2651781417
  N        11.0144501005        8.4373637179        8.6170070631
  O        12.0893600495        7.5929553038        8.0373291895
  C         9.3977036916        7.4857822573        6.7072885445
  C         8.4861119286        6.3677213993        7.3624859698
  C         8.6659398517        6.9705787505        8.7972439702
  C        11.5331188280        8.5509448021        7.1523328836
  C        10.7732903820        7.6047367278        6.1068935399
  O        11.2026259306        7.1016778910        5.0941401397
  H         5.3587860628        7.6324658017        8.2567819979
  H         6.1618844023        6.6440665171        9.6003925847
  H         5.6685017573        5.8058958035        8.0576253997
  H         6.8095089993        9.2013916461        7.8577694901
  H         9.0333237275        9.7474517559        6.7043476286
  H         8.4535775031        5.3175041324        7.0509175713
  H         8.8583447562        6.4963066430        9.7696567758
  H        11.7642261929        9.5745734578        6.9261004948
      21
 i =       16, E =      -107.7565582657
  C         5.9303326635        6.7398350039        8.5416505058
  C         7.3485441589        7.1953887021        8.0182016816
  N         7.3541770494        8.5112638214        7.3739766660
  C         8.7301022999        8.7855715720        7.1735863995
  C         9.5618299400        8.0979439676        8.2531971553
  N        11.0371916272        8.4965131204        8.5556691009
  O        12.1193336438        7.6092937341        8.0540118992
  C         9.3955724074        7.4800669203        6.7340256528
  C         8.4577187828        6.3673242419        7.3662535482
  C         8.6768772195        6.9630339189        8.7610367420
  C        11.5176411382        8.5139947657        7.1400087613
  C        10.7718351794        7.5819788317        6.1317086477
  O        11.2160003798        7.1315001897        5.0946233279
  H         5.3716490219        7.6371610961        8.2574425909
  H         6.1693613758        6.6496528839        9.5955286811
  H         5.6401862994        5.8114147742        8.0479128938
  H         6.7863033396        9.2146105453        7.8963958201
  H         9.0103672016        9.7383469364        6.7191850857
  H         8.4218535900        5.3251578193        7.0516950437
  H         8.7918242761        6.4879197921        9.7538738122
  H        11.7711026299        9.5288787355        6.9473152089
      21
 i =       17, E =      -107.7633829042
  C         5.9417534808        6.7617231883        8.5340911472
  C         7.3486509168        7.1975694352        8.0014137630
  N         7.3276575358        8.5236632350        7.3843719124
  C         8.7173089106        8.7986470227        7.2088491945
  C         9.5661358238        8.0703200116        8.2451783522
  N        10.9985155284        8.5403733535        8.5464511572
  O        12.1281670725        7.6609052852        8.0858776512
  C         9.3930105401        7.4935836608        6.7500746022
  C         8.4563668499        6.3680426247        7.3703625152
  C         8.6722852296        6.9437236962        8.7598525667
  C        11.5213549694        8.4631209942        7.1345139976
  C        10.7589296098        7.5783526332        6.1354363571
  O        11.2372134865        7.1546300734        5.0932736844
  H         5.3768647187        7.6452893084        8.2678177557
  H         6.1590003674        6.6441528146        9.5860659546
  H         5.6420558969        5.8338769178        8.0428072729
  H         6.8165926093        9.2034490074        7.9168367503
  H         9.0112850870        9.7337060540        6.7619743111
  H         8.3743769812        5.3256012712        7.0279189566
  H         8.7471055509        6.4576324645        9.7549248297
  H        11.8251176864        9.4703910496        6.9331916475
      21
 i =       18, E =      -107.7699707104
  C         5.9299694701        6.7711129339        8.5366943120
  C         7.3404907922        7.1822921471        7.9966268618
  N         7.3400289053        8.5152991613        7.4025608236
  C         8.7273577929        8.8015780211        7.2149023640
  C         9.5752535107        8.0536423166        8.2465630987
  N        10.9389783489        8.5553043820        8.5277061871
  O        12.0959430468        7.6582122988        8.1101981843
  C         9.4010187397        7.4956996942        6.7621495049
  C         8.4569564584        6.3772619228        7.3685769724
  C         8.6671103943        6.9277850030        8.7622355671
  C        11.5375973941        8.4450697007        7.1316017332
  C        10.7588039892        7.5820411491        6.1539424086
  O        11.2688210605        7.1661745567        5.1141221246
  H         5.3733869234        7.6751150633        8.2683952969
  H         6.1699657678        6.6395953217        9.5881746161
  H         5.6710631749        5.8466633699        8.0293271945
  H         6.8167386962        9.2164754247        7.9303057241
  H         9.0268684883        9.7568842181        6.7959551171
  H         8.3358144228        5.3407887431        7.0115085671
  H         8.7145655736        6.4401574314        9.7546824991
  H        11.8230790611        9.4278692577        6.8913165628
      21
 i =       19, E =      -107.7744555855
  C         5.9268054139        6.7810449628        8.5343332106
  C         7.3304361290        7.1915424173        7.9925907635
  N         7.3433304823        8.5137812176        7.3918410103
  C         8.7430055035        8.7927903907        7.2438826355
  C         9.5831849929        8.0079701215        8.2651297721
  N        10.9193688255        8.5991033829        8.5006159220
  O        12.1096990365        7.6867356341        8.1839342492
  C         9.4080687420        7.4763046968        6.7963947804
  C         8.4361510209        6.3825040004        7.3687317632
  C         8.6596445240        6.8962606012        8.7720143637
  C        11.5507505149        8.4364048288        7.1203417727
  C        10.7358212340        7.5968417042        6.1637247238
  O        11.2364824914        7.1366762409        5.1331872396
  H         5.3939242987        7.7022333409        8.2588817286
  H         6.1694539939        6.6447695245        9.5859526603
  H         5.6968748988        5.8679137689        7.9991810378
  H         6.8183497750        9.2114118325        7.9324292459
  H         9.0361382455        9.7688577497        6.8618575810
  H         8.3106372567        5.3672875175        6.9879192838
  H         8.6827780305        6.4153594543        9.7514180440
  H        11.8071496056        9.4107041145        6.8504989131
      21
 i =       20, E =      -107.7775167063
  C         5.9260724610        6.7865800031        8.5322827969
  C         7.3315344394        7.2166721764        8.0078747173
  N         7.3494908067        8.5350340478        7.3967776011
  C         8.7487629110        8.7834395871        7.2505664477
  C         9.5874304670        8.0134160090        8.2807674611
  N        10.9016856508        8.5934164065        8.4826515769
  O        12.1021163862        7.6573846402        8.1659999473
  C         9.4068779374        7.4639114856        6.7980095015
  C         8.4216806946        6.3934357760        7.3602344672
  C         8.6580865979        6.8961295042        8.7808922426
  C        11.5402034984        8.4346650564        7.1345802258
  C        10.7408138394        7.5901860812        6.1778918623
  O        11.2559314493        7.1317015910        5.1499736790
  H         5.3727195025        7.6778372896        8.2674234410
  H         6.1561710247        6.6364158063        9.5843435156
  H         5.6995713716        5.8749705166        7.9856661175
  H         6.8377842046        9.2324704131        7.9534790109
  H         9.0530881896        9.7584712906        6.8689529009
  H         8.3151806439        5.3840049434        6.9895655831
  H         8.6935698462        6.3993458806        9.7433077361
  H        11.7961377682        9.4206785298        6.8361227491
      21
 i =       21, E =      -107.7802740924
  C         5.9198107980        6.7782485957        8.5332034783
  C         7.3295419444        7.2274428020        8.0194470474
  N         7.3530026346        8.5468312847        7.4172902037
  C         8.7452842664        8.7846908762        7.2616889833
  C         9.5894772119        8.0146891251        8.2872716174
  N        10.8998256904        8.5967880283        8.4767711773
  O        12.1210391716        7.6503546693        8.1493367482
  C         9.4044678862        7.4650535542        6.8093028584
  C         8.4219046691        6.3928882561        7.3646926604
  C         8.6528307765        6.9071743393        8.7943807728
  C        11.5403703407        8.4419559565        7.1482115140
  C        10.7503748202        7.5803586352        6.1798650949
  O        11.2545048458        7.0984077512        5.1606575880
  H         5.3745611181        7.6784657973        8.2627819728
  H         6.1262657102        6.6266416502        9.5865080626
  H         5.6918518083        5.8747323792        7.9682258961
  H         6.8672282021        9.2543244712        7.9756117370
  H         9.0722206854        9.7449995691        6.8711528591
  H         8.3198506354        5.3850429575        6.9815222605
  H         8.6979947684        6.3825639200        9.7414054164
  H        11.7672063823        9.4207941351        6.8129744383
      21
 i =       22, E =      -107.7817753915
  C         5.9045814750        6.7814229910        8.5238500960
  C         7.3266996627        7.2346432557        8.0407682646
  N         7.3611852564        8.5566000423        7.4474077789