      25
 i =        1, E =      -110.2208014587
  C         5.7848917960        8.5259656958        8.4192659990
  C         7.1969893671        8.0782681120        8.5465255044
  N         8.1580934493        9.1551112774        8.8817297889
  C         9.2595129219        8.7009776117        7.9738446597
  C         8.5433693362        8.8359763754        6.5990128364
  C         7.7138914001        7.6464582273        7.1746311906
  C         9.0356381966        7.1160381816        7.8076856009
  C         8.6793541916        6.2903123055        9.0501761709
  C         7.4035447944        6.9314909053        9.5562890726
  O         6.6817477782        6.6710942114       10.5237534412
  O         9.8460287223        6.4052889266        6.8433028432
  N        11.1856073804        6.3764154606        7.2488588222
  C        11.8974319047        5.6903147541        6.4157729595
  H         5.3507000000        9.4558154699        7.8801620265
  H         5.4644581067        8.8369741864        9.4163381347
  H         4.9860751386        7.7665365693        8.2391162722
  H         8.3624706707        9.1578529384        9.8833181042
  H        10.2484767438        9.1225041864        8.1418174291
  H         9.1678229330        8.5451540327        5.7439774955
  H         8.0346479543        9.7804554069        6.3826109550
  H         7.0945846286        7.0087596112        6.5431118617
  H         9.4787876091        6.3487180560        9.7950070313
  H         8.4920903156        5.2452793786        8.7764772235
  H        13.0238666032        5.6147734692        6.3794625559
  H        11.4030121772        5.2414678799        5.5447089000
      25
 i =        2, E =      -110.2953718004
  C         5.8937024216        8.4510038862        8.3155200582
  C         7.2709551155        8.0515080236        8.5029217682
  N         8.1833222435        9.1639823392        8.8797045846
  C         9.2740342477        8.7023879156        7.9613363598
  C         8.5353902486        8.8554339344        6.6016654787
  C         7.7556576649        7.6128074430        7.1291232230
  C         9.0521232694        7.1125648547        7.8233664591
  C         8.6919628228        6.2912064169        9.0628718092
  C         7.4078886892        6.9266304605        9.5525236045
  O         6.6470763439        6.6524386853       10.4895602443
  O         9.8582095150        6.4238800103        6.8474959457
  N        11.1926531361        6.4042075391        7.2804859872
  C        11.8850334665        5.6724028887        6.4823393350
  H         5.2389058500        9.4970193050        7.9506802107
  H         5.5920689387        8.7645918119        9.3228184017
  H         4.7860751386        7.8642174758        8.3160175919
  H         8.3842421516        9.1467730887        9.8836785352
  H        10.2545627246        9.1286663351        8.1560161034
  H         9.1617599005        8.5352950693        5.7569208139
  H         8.0253312132        9.7994318821        6.3864200325
  H         7.0684426130        6.9942376855        6.5395412905
  H         9.4866752479        6.3344617651        9.8109470195
  H         8.4987584426        5.2483084693        8.7789136391
  H        13.0484954678        5.6527942185        6.2845493665
  H        11.2995499368        5.2620920676        5.6542354540
      25
 i =        3, E =      -110.2279013755
  C         5.9684693913        8.4050357743        8.3256671331
  C         7.2882972737        8.0127123572        8.4172702139
  N         8.2018478442        9.1138550959        8.8601607112
  C         9.3129544479        8.7056255069        7.9388943226
  C         8.5370238379        8.8729755855        6.6032216220
  C         7.8337640918        7.5599987143        7.0757885203
  C         9.0909225838        7.1129712035        7.8461048523
  C         8.7393682862        6.2914853055        9.0727730258
  C         7.4407446978        6.9308551146        9.5027014029
  O         6.6501074473        6.6165970862       10.3984498921
  O         9.8813147718        6.4494505455        6.8773787623
  N        11.1990093082        6.4717506414        7.3275838994
  C        11.7545431557        5.6850644874        6.4888487059
  H         5.2492026842        9.4806366474        8.0152943948
  H         5.4423480466        8.8310934377        9.2791093608
  H         4.6592626559        7.9677406305        8.3882463004
  H         8.4342623279        9.1166846119        9.8606745567
  H        10.2802781662        9.1428907759        8.1779677487
  H         9.1614765855        8.5292081848        5.7665294739
  H         8.0111732416        9.8146658741        6.4026588974
  H         7.0423240767        6.9765128829        6.5461607099
  H         9.5069274683        6.3002340041        9.8462691764
  H         8.5193153720        5.2516412978        8.7843083168
  H        12.8842711394        5.7779897734        6.3165414025
  H        11.3904100593        5.1160942326        5.6486356796
      25
 i =        4, E =      -110.2866738393
  C         5.8755159296        8.4263856720        8.4069151780
  C         7.1858848091        8.0141955298        8.4047393623
  N         8.1882694578        9.0492564809        8.8412280245
  C         9.3337583884        8.7059771221        7.9276779524
  C         8.5484249196        8.8539149987        6.5957495996
  C         7.8544170094        7.5581957078        7.1054768292
  C         9.1106336756        7.1086553837        7.8459852341
  C         8.7582111344        6.3048895897        9.0890158770
  C         7.4211696101        6.9310456643        9.4735741050
  O         6.5741248120        6.6299151575       10.3398632492
  O         9.9006462129        6.4449982464        6.8917524738
  N        11.2386588957        6.4753137600        7.2795780353
  C        11.8364367919        5.6944931080        6.4679027977
  H         5.4312744028        9.4126520445        7.9561659363
  H         5.2423480466        8.9338916999        9.3510552246
  H         4.6469803932        7.9711072737        8.3942046366
  H         8.4676417224        9.0859267984        9.8333311629
  H        10.2986821585        9.1521117137        8.1861230805
  H         9.1748360987        8.5407231937        5.7529093310
  H         8.0080563999        9.7994882175        6.4222569137
  H         7.0699852346        6.9827311334        6.5672584345
  H         9.5238527092        6.2720282115        9.8714351204
  H         8.5405220045        5.2604119921        8.7897664497
  H        12.9848099692        5.8052636856        6.2180279227
  H        11.2525394408        5.1143669193        5.7562106390
      25
 i =        5, E =      -110.3178237842
  C         5.8424833502        8.4662925746        8.3610088279
  C         7.1633815323        8.0408440289        8.4603396357
  N         8.1803479360        9.0774303820        8.8454716422
  C         9.3160763162        8.6981360930        7.9435352052
  C         8.5658505417        8.8191406511        6.5896951157
  C         7.8079741036        7.5945761610        7.1501999349
  C         9.0852011352        7.1097719223        7.8216145104
  C         8.7579942809        6.3129795450        9.0826665227
  C         7.3935961486        6.9010906368        9.4561606028
  O         6.5854143468        6.6285328644       10.3513325848
  O         9.8699240602        6.4212546764        6.8870659104
  N        11.1979993440        6.5125385805        7.2883007329
  C        11.8082288182        5.7355053096        6.4842057658
  H         5.4191553075        9.4524956426        7.9135239529
  H         5.3794285834        8.8839464008        9.3848238810
  H         4.8469803932        7.8586831710        8.3199930564
  H         8.4557175977        9.0731592291        9.8357899060
  H        10.2850391250        9.1484084347        8.1765038240
  H         9.1866509584        8.5580106069        5.7290807875
  H         8.0182674683        9.7647008477        6.4300405059
  H         7.1181221312        6.9855110704        6.5675338635
  H         9.5218709426        6.2751014433        9.8697981638
  H         8.5449672357        5.2666176816        8.7906379475
  H        12.9576533086        5.7941845894        6.2216506799
  H        11.1564643739        5.1544561513        5.8019653532
      25
 i =        6, E =      -110.2979106274
  C         5.8608183897        8.4826689980        8.2756535975
  C         7.2189623866        8.0667807428        8.5147371249
  N         8.1854586759        9.1617314880        8.8712498424
  C         9.2766893772        8.6831176153        7.9744288674
  C         8.5942823394        8.7844621223        6.5829701233
  C         7.7559779990        7.6254944504        7.1698447474
  C         9.0581310491        7.1045870137        7.8007491710
  C         8.7170394357        6.3111928313        9.0779581692
  C         7.3498976686        6.8816010879        9.4804471585
  O         6.5965342664        6.6117980200       10.4085042338
  O         9.8809008291        6.3730107826        6.9200492306
  N        11.2526193373        6.5085708885        7.1888771926
  C        11.9000811387        5.7133044873        6.4052149352
  H         5.2191553075        9.5445333489        7.9537588138
  H         5.5517972356        8.8044444962        9.3655433048
  H         4.7683561275        7.9160883186        8.3311950602
  H         8.4238615804        9.0558933160        9.8650416151
  H        10.2524981591        9.1365925425        8.1570457790
  H         9.1992728396        8.5777690451        5.6951781298
  H         8.0312218563        9.7209472557        6.4305508317
  H         7.1760665552        6.9628070728        6.5400847588
  H         9.4964865879        6.3008875067        9.8525227716
  H         8.5514248138        5.2609505994        8.7866218041
  H        12.9767912447        5.7855106674        6.3445382723
  H        11.1550565961        5.1474462878        5.7552492991
      25
 i =        7, E =      -110.3156392573
  C         5.9310966718        8.4417919727        8.2959009459
  C         7.2689331985        8.0162692673        8.4564820045
  N         8.1931674250        9.1370804103        8.8763391727
  C         9.2901854797        8.6939451295        7.9667196869
  C         8.5849849823        8.8090096547        6.5909371492
  C         7.8162896064        7.5692928937        7.1210286998
  C         9.0890758624        7.1092958714        7.8571418908
  C         8.6747679032        6.3002473175        9.1041004510
  C         7.3383324907        6.9152113498        9.5517391426
  O         6.4632288342        6.6326897220       10.4117566430
  O         9.8522950304        6.3892676918        6.9260737218
  N        11.2079939406        6.5948733761        7.2292700480
  C        11.8107992588        5.7303830424        6.4758049780
  H         5.3424448145        9.4693889337        7.9413546721
  H         5.5160118546        8.8252420001        9.3410847580
  H         4.7138403665        7.9820506578        8.3558771813
  H         8.4306653152        9.0467108655        9.8695324933
  H        10.2648858818        9.1384502773        8.1648214193
  H         9.1936753657        8.5701537643        5.7116857666
  H         8.0227995267        9.7394193782        6.4246738142
  H         7.1593539628        6.9365698014        6.5251396616
  H         9.4779206217        6.3075676905        9.8529428291
  H         8.5615143868        5.2488036928        8.7848194486
  H        12.9514531784        5.8166740674        6.1539661081
  H        11.2851802736        5.1010774836        5.7543757997
      25
 i =        8, E =      -110.2950485066
  C         5.8283560648        8.5015359085        8.3648389890
  C         7.1467813508        8.0395983045        8.3492466158
  N         8.1975353212        9.0269485047        8.8511287978
  C         9.3439601049        8.7040813013        7.9318016392
  C         8.5487543682        8.8454787378        6.6057170698
  C         7.8781213868        7.5203162496        7.0976197136
  C         9.1160769679        7.1147175822        7.9145054546
  C         8.7432254886        6.2633099666        9.1186796243
  C         7.4158613280        6.9647305408        9.4219728893
  O         6.6291252821        6.5689585128       10.2736304603
  O         9.8520133299        6.4571299360        6.9323421385
  N        11.1984367134        6.5922733292        7.2405212097
  C        11.7859498522        5.6829943858        6.5367243101
  H         5.3297018056        9.5004069854        7.9613994740
  H         5.3160118546        8.9331301696        9.3900478574
  H         4.7871662403        7.9511213642        8.3407940861
  H         8.4643707892        9.0385535585        9.8416681254
  H        10.3080630374        9.1534358867        8.1908862048
  H         9.1863149789        8.5511979193        5.7578775686
  H         8.0041151318        9.7794665010        6.4241625734
  H         7.1264827401        6.9278309056        6.5423531094
  H         9.4984260575        6.2916050665        9.9079429009
  H         8.5561893615        5.2272768612        8.7895969109
  H        12.9518719886        5.8477099323        6.1102803344
  H        11.2316825044        5.0591010928        5.8498067391
      25
 i =        9, E =      -110.3673732863
  C         5.8581629393        8.4816787336        8.3110694961
  C         7.1792521427        8.0315620572        8.4721467163
  N         8.1859603307        9.0999450835        8.8489575097
  C         9.3141839354        8.6793707737        7.9621096042
  C         8.5868723971        8.8061973599        6.5950723783
  C         7.7952069642        7.6028082274        7.1503948963
  C         9.0678969983        7.1057381292        7.8250487654
  C         8.7521293994        6.3125075419        9.0953280830
  C         7.3478055041        6.8545648207        9.4379916358
  O         6.5546934575        6.6039313544       10.3370308051
  O         9.8850769464        6.4295550749        6.9249367014
  N        11.2320001141        6.5614384237        7.2112481555
  C        11.8381553112        5.7829819987        6.4271798191
  H         5.3640009785        9.4903135425        7.9261101340
  H         5.4479135537        8.8795186580        9.3709633590
  H         4.7211844261        7.9882222674        8.3584990313
  H         8.4458165758        9.0187866487        9.8402757204
  H        10.2790163813        9.1468250837        8.1801978327
  H         9.2091866742        8.5672270296        5.7242933163
  H         8.0139676476        9.7335156202        6.4389113664
  H         7.1892396268        6.9282905793        6.5490663842
  H         9.4858110568        6.2878978535        9.9150816271
  H         8.5605509211        5.2663360254        8.8025151843
  H        12.9360975987        5.8507272463        6.2025854793
  H        11.1974929128        5.0392944561        5.8396384336
      25
 i =       10, E =      -110.3653648933
  C         5.8900720570        8.4937990007        8.2851718682
  C         7.2163922783        8.0216614642        8.4374250712
  N         8.1733962057        9.1164458766        8.8835156438
  C         9.2825284272        8.7000556882        7.9747040581
  C         8.5892362657        8.7920737909        6.5893917365
  C         7.8360716804        7.5516805798        7.1394416512
  C         9.1264046146        7.1169497598        7.8566959856
  C         8.6919676674        6.3021304407        9.0907219969
  C         7.3548196055        6.9186156645        9.5090218260
  O         6.5132938988        6.5668209953       10.3536737742
  O         9.8632107596        6.3684479752        6.9326101805
  N        11.2301628433        6.6377677163        7.1538200085
  C        11.8276376269        5.6939799610        6.4703747180
  H         5.2865124376        9.5233771433        7.9459345364
  H         5.4996969420        8.8570663435        9.3563120647
  H         4.7387066244        8.0159939308        8.3618144537
  H         8.4333738482        9.0113036041        9.8719357017
  H        10.2636550019        9.1314608349        8.1744036175
  H         9.2114874720        8.5721605513        5.7141508141
  H         8.0252049883        9.7242190606        6.4374755821
  H         7.1993127066        6.9141682440        6.5249616745
  H         9.4473163323        6.3105040887        9.8884836802
  H         8.5773603075        5.2449314477        8.7984812058
  H        12.9398791614        5.8723894396        6.1769379963
  H        11.2315700044        5.0806389263        5.8124982210
      25
 i =       11, E =      -110.3816523790
  C         5.8802260293        8.4898255433        8.2987734345
  C         7.2015926604        8.0265977837        8.4243174597
  N         8.1941740636        9.0918459470        8.8674935214
  C         9.3109505317        8.6859416219        7.9610254397
  C         8.5801379717        8.8091339932        6.5977526644
  C         7.8295603759        7.5587873083        7.1259570842
  C         9.0887288632        7.1068293879        7.8789478661
  C         8.7088624050        6.2927282486        9.1212751672
  C         7.3391219825        6.8978661471        9.4662718856
  O         6.5283427295        6.5698665783       10.3324329104
  O         9.8613072796        6.4163268952        6.9470775460
  N        11.2214440746        6.6100031564        7.1675595778
  C        11.8283893045        5.7583475194        6.4408611818
  H         5.3328111992        9.5087815601        7.9398780728
  H         5.4642786079        8.8859048283        9.3559187231
  H         4.7508560106        8.0116332239        8.3561600952
  H         8.4355641913        9.0030855337        9.8602879476
  H        10.2765735989        9.1456254322        8.1865239955
  H         9.2108269920        8.5658138580        5.7332540167
  H         8.0139267837        9.7357627786        6.4334034509
  H         7.1960530913        6.9003393307        6.5273762172
  H         9.4628817389        6.3077844203        9.9164383192
  H         8.5742226785        5.2454013849        8.7986546830
  H        12.9264818120        5.8699193362        6.1631110003
  H        11.2233966499        5.0475794219        5.8400489899
      25
 i =       12, E =      -110.3807998725
  C         5.8513863587        8.5047460057        8.2957485212
  C         7.1675463802        8.0237623061        8.4424013468
  N         8.1779367054        9.0822551391        8.8626060608
  C         9.3116411365        8.6812301329        7.9744412780
  C         8.5884798626        8.7986048769        6.6045952123
  C         7.8237781197        7.5684347512        7.1506384145
  C         9.0980598525        7.1070834411        7.8540656267
  C         8.7321695486        6.3040188918        9.1061918119
  C         7.3423870456        6.8720868891        9.4423297646
  O         6.5327984552        6.5633802707       10.3109531791
  O         9.8756123282        6.3844405495        6.9524933597
  N        11.2344699562        6.6409373254        7.1561058378
  C        11.8199236745        5.7461396611        6.4484387368
  H         5.3449521750        9.5192851428        7.9269204002
  H         5.4594824422        8.9024824806        9.3635929265
  H         4.7271762321        8.0294939208        8.3647353132
  H         8.4378604071        8.9862129442        9.8524556165
  H        10.2777684533        9.1448305362        8.1888963269
  H         9.2175913379        8.5656894690        5.7360440657
  H         8.0148737549        9.7217783328        6.4401111461
  H         7.2169295362        6.8985397499        6.5380814402
  H         9.4523439922        6.3058741574        9.9374487471
  H         8.5747864381        5.2543280376        8.8116564391
  H        12.9174336493        5.8883805886        6.1380409353
  H        11.2371170353        5.0284023487        5.8513171574
      25
 i =       13, E =      -110.3837561120
  C         5.8748230885        8.5046979088        8.2918424484
  C         7.1828971231        8.0103690370        8.4374374201
  N         8.1750155543        9.0820601140        8.8705904279
  C         9.3055388830        8.6836912408        7.9783630768
  C         8.5924288959        8.7948454007        6.6033584226
  C         7.8326413430        7.5588032578        7.1449517317
  C         9.1062841909        7.1091326650        7.8616049634
  C         8.7219239270        6.3050899418        9.1088131740
  C         7.3387016452        6.8721503485        9.4587530260
  O         6.5159657663        6.5497867374       10.3164239872
  O         9.8759598140        6.3835036486        6.9556458445
  N        11.2363839712        6.6489797501        7.1347202811
  C        11.8231626528        5.7545494725        6.4317427297
  H         5.3415722553        9.5188646773        7.9288384811
  H         5.4552680240        8.9111578951        9.3497368139
  H         4.7579357266        8.0365176054        8.3573391405
  H         8.4341346479        8.9747227939        9.8598864565
  H        10.2734983400        9.1418244466        8.1928271760
  H         9.2230288415        8.5631260559        5.7361898726
  H         8.0157080996        9.7174134138        6.4433338668
  H         7.2241403020        6.8878496408        6.5330632685
  H         9.4386066960        6.3114286242        9.9432388164
  H         8.5807027515        5.2523629226        8.8168564391
  H        12.9078317966        5.9079293724        6.1387785260
  H        11.1995925506        5.0351247556        5.8673762447
      25
 i =       14, E =      -110.3835814564
  C         5.8742445394        8.5094191832        8.2771541458
  C         7.1903805384        8.0186631659        8.4183501463
  N         8.1908805476        9.0736369783        8.8848667979
  C         9.3054962980        8.6819723063        7.9720501731
  C         8.5867365339        8.7915446905        6.6014715815
  C         7.8357623683        7.5436174380        7.1342197604
  C         9.0939626205        7.1068179520        7.9026674336
  C         8.6950122602        6.2903449478        9.1380682577
  C         7.3215594058        6.8893709175        9.4626792691
  O         6.5189550651        6.5314313076       10.3212660587
  O         9.8617710623        6.4240353426        6.9607529313
  N        11.2204417425        6.6509100573        7.1105618797
  C        11.8320350014        5.7783076823        6.4177548740
  H         5.3297811463        9.5347624325        7.9277911562
  H         5.4931818633        8.9105180670        9.3456913924
  H         4.7507702766        8.0531179585        8.3575077499
  H         8.4216414985        8.9633130367        9.8775292929
  H        10.2699695171        9.1426225475        8.2022897450
  H         9.2289077936        8.5605721151        5.7421096040
  H         8.0164761802        9.7163910766        6.4417302392
  H         7.2339203923        6.8685917011        6.5195516679
  H         9.4292672853        6.3258726663        9.9503398068
  H         8.5893045785        5.2387422623        8.8169904243
  H        12.9084353049        5.9100821589        6.1123459670
  H        11.2270599967        5.0177791275        5.8771684822
      25
 i =       15, E =      -110.3868700516
  C         5.8715166096        8.5151198189        8.2813596776
  C         7.1818450873        8.0132690958        8.4253595849
  N         8.1811700150        9.0737094982        8.8800588499
  C         9.3069746378        8.6743702586        7.9848136181
  C         8.5926840457        8.7911961652        6.6112213514
  C         7.8352622955        7.5473243045        7.1416198936
  C         9.0993869255        7.1032289818        7.8857860710
  C         8.7105157138        6.2977507095        9.1308388768
  C         7.3209192589        6.8693127011        9.4469054283
  O         6.5174273737        6.5365603466       10.3109162956
  O         9.8715391072        6.4039371727        6.9596424231
  N        11.2282651221        6.6732615461        7.1002031727
  C        11.8222069231        5.7657647912        6.4229970712
  H         5.3362148632        9.5355440884        7.9241609593
  H         5.4735476457        8.9283660331        9.3433818860
  H         4.7539783978        8.0621241793        8.3567778079
  H         8.4222384349        8.9513390473        9.8713243051
  H        10.2690895189        9.1432089842        8.2060773559
  H         9.2305816407        8.5586110013        5.7491223986
  H         8.0156033849        9.7102268969        6.4431474157
  H         7.2437486670        6.8638575729        6.5257308158
  H         9.4231096936        6.3257001169        9.9654036068
  H         8.5905552491        5.2450347391        8.8263139408
  H        12.8994942495        5.9243092261        6.0955931339
  H        11.2182638662        5.0137734957        5.8883627414
      25
 i =       16, E =      -110.3872667267
  C         5.8608303938        8.5264579454        8.2750614239
  C         7.1644902853        8.0032319407        8.4245344400
  N         8.1691677048        9.0580088568        8.8850763505
  C         9.3045304020        8.6784673294        7.9922041875
  C         8.5960588662        8.7843129542        6.6143735442
  C         7.8408808666        7.5423940643        7.1502027086
  C         9.1129329555        7.1087222411        7.8846224176
  C         8.7149369513        6.2981366115        9.1236030599
  C         7.3330420287        6.8706447996        9.4505200019
  O         6.5074109562        6.5317072768       10.2988651556
  O         9.8747371965        6.3927853485        6.9611088836
  N        11.2279838853        6.6930368550        7.0770409541
  C        11.8186821518        5.7835859341        6.4076695758
  H         5.3443502374        9.5459331147        7.9109093278
  H         5.4790577312        8.9452699186        9.3416701246
  H         4.7496673186        8.0775449576        8.3566953132
  H         8.4177965863        8.9327369325        9.8740895669
  H        10.2688375639        9.1399222507        8.2172133888
  H         9.2402137852        8.5539967146        5.7567777098
  H         8.0171485611        9.7026694008        6.4487682952
  H         7.2587256131        6.8552681883        6.5294789157
  H         9.4035898834        6.3329204526        9.9817862700
  H         8.5989771683        5.2404057881        8.8402315442
  H        12.8817047133        5.9368489262        6.0808626025
  H        11.2088690928        4.9985525275        5.9114454720
      25
 i =       17, E =      -110.3888230787
  C         5.8628470979        8.5369435909        8.2704111484
  C         7.1632631258        8.0024473305        8.4225114221
  N         8.1682346480        9.0556093188        8.8912866168
  C         9.3027989542        8.6731068697        8.0009067160
  C         8.6005309582        8.7784515592        6.6196798269
  C         7.8404768632        7.5392844960        7.1520509624
  C         9.1093752139        7.1066363742        7.8940174488
  C         8.7106361735        6.2992102562        9.1349833195
  C         7.3157132704        6.8582149106        9.4382173613
  O         6.5070270646        6.5206094387       10.2956957148
  O         9.8757163800        6.3983486404        6.9668922480
  N        11.2266882535        6.7243839619        7.0399639252
  C        11.8130635945        5.7842516996        6.3996077795
  H         5.3429241480        9.5568179733        7.9030461762
  H         5.4786119461        8.9685618350        9.3326661711
  H         4.7526936862        8.1002381714        8.3545412514
  H         8.4065235052        8.9089410997        9.8812803905
  H        10.2636947929        9.1388675133        8.2326871686
  H         9.2515654011        8.5491913115        5.7674723186
  H         8.0184333105        9.6941112445        6.4523817749
  H         7.2777618167        6.8380261263        6.5275521790
  H         9.3872900006        6.3444773123       10.0021292167
  H         8.6098059883        5.2381500350        8.8556213099
  H        12.8687313987        5.9556760870        6.0461097280
  H        11.2074871312        4.9869601783        5.9343580764
      25
 i =       18, E =      -110.3897313003
  C         5.8623827322        8.5544669331        8.2628251355
  C         7.1586639811        8.0014523559        8.4153074739
  N         8.1614438859        9.0537441443        8.8996935507
  C         9.3007607962        8.6605794262        8.0228925060
  C         8.6096608381        8.7765907339        6.6360067146
  C         7.8446101538        7.5331648171        7.1532014469
  C         9.1080769847        7.0998915327        7.9058212764
  C         8.7039726377        6.3008497739        9.1509227545
  C         7.2975760832        6.8486799704        9.4274245418
  O         6.5021515141        6.4805699211       10.2837777761
  O         9.8747256286        6.4021131418        6.9670760071
  N        11.2152463136        6.7529240924        6.9888483591
  C        11.8063223237        5.8012429735        6.3801052300
  H         5.3339875278        9.5773544951        7.8897456152
  H         5.4831765018        9.0026763300        9.3202083273
  H         4.7557777814        8.1299595567        8.3495736262
  H         8.3905852926        8.8779773928        9.8891042519
  H        10.2550237429        9.1383100911        8.2553602557
  H         9.2641730856        8.5434063590        5.7879539435
  H         8.0221837666        9.6842810831        6.4519213191
  H         7.3015168270        6.8173050163        6.5266912178
  H         9.3625672465        6.3666543776       10.0292969095