      25
 i =       69, E =      -110.3925135525
  C         5.8467623167        8.6302085174        8.2941411633
  C         7.1493749336        8.0731553033        8.4251224555
  N         8.1729147404        9.0804310217        8.9594015721
  C         9.3207004797        8.7214780635        8.0663128929
  C         8.6442982381        8.9035529701        6.6858028652
  C         7.8439010165        7.6582252942        7.1502609058
  C         9.1005364697        7.1663693678        7.8938906386
  C         8.6933354634        6.3492420532        9.1207208983
  C         7.2864157004        6.8803546879        9.3966547300
  O         6.4845168148        6.4822049642       10.2324654283
  O         9.8277070992        6.4018190997        6.9678083509
  N        11.1196420257        6.8083809223        6.7151807133
  C        11.6719709327        5.7866645165        6.1793683914
  H         5.3218948826        9.6542897638        7.9170329564
  H         5.5129524429        9.0838944641        9.3538884476
  H         4.7296117258        8.2117507920        8.3992396089
  H         8.3927123420        8.8771737881        9.9418592598
  H        10.2755301432        9.1723213017        8.3478086597
  H         9.3120005547        8.6836018573        5.8437131257
  H         8.0961331606        9.8419055815        6.5323937025
  H         7.2869465520        6.9958222500        6.4826928160
  H         9.3484242783        6.4468493421        9.9977006163
  H         8.6415704398        5.2806922142        8.8643124603
  H        12.6677084037        5.9450453060        5.7048416689
  H        11.0841244503        4.8784389858        6.0049312129
