TACC:  Starting up job 5145048 
TACC:  Starting parallel tasks... 
 DBCSR| CPU Multiplication driver                                           XSMM
 DBCSR| Multrec recursion limit                                              512
 DBCSR| Multiplication stack size                                           1000
 DBCSR| Maximum elements for images                                    UNLIMITED
 DBCSR| Multiplicative factor virtual images                                   1
 DBCSR| Use multiplication densification                                       T
 DBCSR| Multiplication size stacks                                             3
 DBCSR| Number of 3D layers                                               SINGLE
 DBCSR| Use MPI memory allocation                                              T
 DBCSR| Use RMA algorithm                                                      F
 DBCSR| Use Communication thread                                               T
 DBCSR| Communication thread load                                             87


  **** **** ******  **  PROGRAM STARTED AT               2023-01-23 03:03:12.071
 ***** ** ***  *** **   PROGRAM STARTED ON        c207-015.frontera.tacc.utexas.
 **    ****   ******    PROGRAM STARTED BY                                 jiaao
 ***** **    ** ** **   PROGRAM PROCESS ID                                  8278
  **** **  *******  **  PROGRAM STARTED IN /scratch1/08197/jiaao/jiaao/GCN/train
                                           ingset/mol_smi26

 CP2K| version string:                                          CP2K version 7.1
 CP2K| source code revision number:                                  git:e635599
 CP2K| cp2kflags: libint fftw3 libxc parallel mpi3 scalapack xsmm spglib        
 CP2K| is freely available from                            https://www.cp2k.org/
 CP2K| Program compiled at                          Thu Jul  1 01:42:59 CDT 2021
 CP2K| Program compiled on                       login2.frontera.tacc.utexas.edu
 CP2K| Program compiled for                                                local
 CP2K| Data directory path        /work2/08197/jiaao/frontera/apps/cp2k-7.1/data
 CP2K| Input file name                                                mol_26.inp

 GLOBAL| Force Environment number                                              1
 GLOBAL| Basis set file name                                        BASIS_MOLOPT
 GLOBAL| Potential file name                                           POTENTIAL
 GLOBAL| MM Potential file name                                     MM_POTENTIAL
 GLOBAL| Coordinate file name                                      __STD_INPUT__
 GLOBAL| Method name                                                        CP2K
 GLOBAL| Project name                                                     mol_26
 GLOBAL| Preferred FFT library                                             FFTW3
 GLOBAL| Preferred diagonalization lib.                                       SL
 GLOBAL| Run type                                                        GEO_OPT
 GLOBAL| All-to-all communication in single precision                          F
 GLOBAL| FFTs using library dependent lengths                                  F
 GLOBAL| Global print level                                                  LOW
 GLOBAL| MPI I/O enabled                                                       T
 GLOBAL| Total number of message passing processes                            56
 GLOBAL| Number of threads for this process                                    1
 GLOBAL| This output is from process                                           0
 GLOBAL| CPU model name             Intel(R) Xeon(R) Platinum 8280 CPU @ 2.70GHz
 GLOBAL| CPUID                                                              1003

 MEMORY| system memory details [Kb]
 MEMORY|                        rank 0           min           max       average
 MEMORY| MemTotal            195980128     195980128     195980128     195980128
 MEMORY| MemFree             178314936     178314936     178314936     178314936
 MEMORY| Buffers                     0             0             0             0
 MEMORY| Cached                1302580       1302580       1302580       1302580
 MEMORY| Slab                   757864        757864        757864        757864
 MEMORY| SReclaimable           147428        147428        147428        147428
 MEMORY| MemLikelyFree       179764944     179764944     179764944     179764944


 GENERATE|  Preliminary Number of Bonds generated:                             0
 GENERATE|  Achieved consistency in connectivity generation.

 *******************************************************************************
 *******************************************************************************
 **                                                                           **
 **     #####                         ##              ##                      **
 **    ##   ##            ##          ##              ##                      **
 **   ##     ##                       ##            ######                    **
 **   ##     ##  ##   ##  ##   #####  ##  ##   ####   ##    #####    #####    **
 **   ##     ##  ##   ##  ##  ##      ## ##   ##      ##   ##   ##  ##   ##   **
 **   ##  ## ##  ##   ##  ##  ##      ####     ###    ##   ######   ######    **
 **    ##  ###   ##   ##  ##  ##      ## ##      ##   ##   ##       ##        **
 **     #######   #####   ##   #####  ##  ##  ####    ##    #####   ##        **
 **           ##                                                    ##        **
 **                                                                           **
 **                                                ... make the atoms dance   **
 **                                                                           **
 **            Copyright (C) by CP2K developers group (2000 - 2019)           **
 **                                                                           **
 *******************************************************************************


 TOTAL NUMBERS AND MAXIMUM NUMBERS

  Total number of            - Atomic kinds:                                   4
                             - Atoms:                                         21
                             - Shell sets:                                    21
                             - Shells:                                        89
                             - Primitive Cartesian functions:                105
                             - Cartesian basis functions:                    222
                             - Spherical basis functions:                    209

  Maximum angular momentum of- Orbital basis functions:                        2
                             - Local part of the GTH pseudopotential:          2
                             - Non-local part of the GTH pseudopotential:      0


 SCF PARAMETERS         Density guess:                                    ATOMIC
                        --------------------------------------------------------
                        max_scf:                                             200
                        max_scf_history:                                       0
                        max_diis:                                              4
                        --------------------------------------------------------
                        eps_scf:                                        3.00E-06
                        eps_scf_history:                                0.00E+00
                        eps_diis:                                       1.00E-01
                        eps_eigval:                                     1.00E-05
                        --------------------------------------------------------
                        level_shift [a.u.]:                                 0.00
                        --------------------------------------------------------
                        No outer SCF

 BFGS| Use rational function optimization for step estimation:                NO
 BFGS| Use model Hessian for initial guess:                                  YES
 BFGS| Restart Hessian:                                                       NO
 BFGS| Trust radius:                                                       0.378

 *******************************************************************************
 ***                     STARTING GEOMETRY OPTIMIZATION                      ***
 ***                                   BFGS                                  ***
 *******************************************************************************

 Number of electrons:                                                         66
 Number of occupied orbitals:                                                 33
 Number of molecular orbitals:                                                33

 Number of orbital functions:                                                209
 Number of independent orbital functions:                                    209

 Extrapolation method: initial_guess


 SCF WAVEFUNCTION OPTIMIZATION

  ----------------------------------- OT ---------------------------------------
  Minimizer      : DIIS                : direct inversion
                                         in the iterative subspace
                                         using   7 DIIS vectors
                                         safer DIIS on
  Preconditioner : FULL_ALL            : diagonalization, state selective
  Precond_solver : DEFAULT
  stepsize       :    0.15000000                  energy_gap     :    0.08000000
  eps_taylor     :   0.10000E-15                  max_taylor     :             4
  ----------------------------------- OT ---------------------------------------

  Step     Update method      Time    Convergence         Total energy    Change
  ------------------------------------------------------------------------------
     1 OT DIIS     0.15E+00    0.5     0.11673240      -101.2182768266 -1.01E+02
     2 OT DIIS     0.15E+00    0.5     0.25736760       -97.3774455855  3.84E+00
     3 OT DIIS     0.15E+00    0.5     0.07961611      -104.1648267749 -6.79E+00
     4 OT DIIS     0.15E+00    0.5     0.05518386      -105.8236072011 -1.66E+00
     5 OT DIIS     0.15E+00    0.5     0.03804932      -106.3092528327 -4.86E-01
     6 OT DIIS     0.15E+00    0.5     0.02873419      -106.5312757043 -2.22E-01
     7 OT DIIS     0.15E+00    0.5     0.01981697      -106.6735888897 -1.42E-01
     8 OT DIIS     0.15E+00    0.5     0.01439311      -106.7598080724 -8.62E-02
     9 OT DIIS     0.15E+00    0.5     0.01250346      -106.8151121793 -5.53E-02
    10 OT DIIS     0.15E+00    0.5     0.00888814      -106.8518801203 -3.68E-02
    11 OT DIIS     0.15E+00    0.5     0.00736817      -106.8843667760 -3.25E-02
    12 OT DIIS     0.15E+00    0.5     0.00664780      -106.9099883574 -2.56E-02
    13 OT DIIS     0.15E+00    0.5     0.00606056      -106.9386881249 -2.87E-02
    14 OT DIIS     0.15E+00    0.5     0.00733263      -106.9497125725 -1.10E-02
    15 OT DIIS     0.15E+00    0.5     0.00598224      -106.9731006879 -2.34E-02
    16 OT DIIS     0.15E+00    0.5     0.00464183      -106.9812791975 -8.18E-03
    17 OT DIIS     0.15E+00    0.5     0.00415535      -106.9879696691 -6.69E-03
    18 OT DIIS     0.15E+00    0.5     0.00419171      -106.9962974727 -8.33E-03
    19 OT DIIS     0.15E+00    0.5     0.00306860      -107.0028598884 -6.56E-03
    20 OT DIIS     0.15E+00    0.5     0.00250482      -107.0078437698 -4.98E-03
    21 OT DIIS     0.15E+00    0.5     0.00192158      -107.0128070115 -4.96E-03
    22 OT DIIS     0.15E+00    0.5     0.00189561      -107.0158423423 -3.04E-03
    23 OT DIIS     0.15E+00    0.5     0.00143279      -107.0181708445 -2.33E-03
    24 OT DIIS     0.15E+00    0.5     0.00134959      -107.0200050621 -1.83E-03
    25 OT DIIS     0.15E+00    0.5     0.00118030      -107.0210654075 -1.06E-03
    26 OT DIIS     0.15E+00    0.5     0.00081475      -107.0217243791 -6.59E-04
    27 OT DIIS     0.15E+00    0.5     0.00083204      -107.0222325703 -5.08E-04
    28 OT DIIS     0.15E+00    0.5     0.00077045      -107.0226840714 -4.52E-04
    29 OT DIIS     0.15E+00    0.5     0.00053124      -107.0229877588 -3.04E-04
    30 OT DIIS     0.15E+00    0.5     0.00049782      -107.0232633306 -2.76E-04
    31 OT DIIS     0.15E+00    0.5     0.00044382      -107.0234027602 -1.39E-04
    32 OT DIIS     0.15E+00    0.5     0.00040329      -107.0235791036 -1.76E-04
    33 OT DIIS     0.15E+00    0.5     0.00037784      -107.0237131698 -1.34E-04
    34 OT DIIS     0.15E+00    0.5     0.00039056      -107.0238781721 -1.65E-04
    35 OT DIIS     0.15E+00    0.5     0.00032516      -107.0239977777 -1.20E-04
    36 OT DIIS     0.15E+00    0.5     0.00029569      -107.0241252728 -1.27E-04
    37 OT DIIS     0.15E+00    0.5     0.00025470      -107.0241921994 -6.69E-05
    38 OT DIIS     0.15E+00    0.5     0.00022811      -107.0243170678 -1.25E-04
    39 OT DIIS     0.15E+00    0.5     0.00022082      -107.0243904386 -7.34E-05
    40 OT DIIS     0.15E+00    0.5     0.00022673      -107.0244754971 -8.51E-05
    41 OT DIIS     0.15E+00    0.5     0.00019172      -107.0245229698 -4.75E-05
    42 OT DIIS     0.15E+00    0.5     0.00016242      -107.0245635590 -4.06E-05
    43 OT DIIS     0.15E+00    0.5     0.00016342      -107.0245931565 -2.96E-05
    44 OT DIIS     0.15E+00    0.5     0.00014920      -107.0246201971 -2.70E-05
    45 OT DIIS     0.15E+00    0.5     0.00012194      -107.0246311965 -1.10E-05
    46 OT DIIS     0.15E+00    0.5     0.00010046      -107.0246487988 -1.76E-05
    47 OT DIIS     0.15E+00    0.5     0.00009682      -107.0246559560 -7.16E-06
    48 OT DIIS     0.15E+00    0.5     0.00008639      -107.0246633078 -7.35E-06
    49 OT DIIS     0.15E+00    0.5     0.00008180      -107.0246679749 -4.67E-06
    50 OT DIIS     0.15E+00    0.5     0.00008058      -107.0246725901 -4.62E-06
    51 OT DIIS     0.15E+00    0.5     0.00007332      -107.0246768316 -4.24E-06
    52 OT DIIS     0.15E+00    0.5     0.00006906      -107.0246812360 -4.40E-06
    53 OT DIIS     0.15E+00    0.5     0.00006392      -107.0246834424 -2.21E-06
    54 OT DIIS     0.15E+00    0.5     0.00005673      -107.0246877763 -4.33E-06
    55 OT DIIS     0.15E+00    0.5     0.00005544      -107.0246910578 -3.28E-06
    56 OT DIIS     0.15E+00    0.5     0.00005593      -107.0246958520 -4.79E-06
    57 OT DIIS     0.15E+00    0.5     0.00005526      -107.0246987661 -2.91E-06
    58 OT DIIS     0.15E+00    0.5     0.00005126      -107.0247035666 -4.80E-06
    59 OT DIIS     0.15E+00    0.5     0.00005118      -107.0247073018 -3.74E-06
    60 OT DIIS     0.15E+00    0.5     0.00004824      -107.0247118896 -4.59E-06
    61 OT DIIS     0.15E+00    0.5     0.00004660      -107.0247149527 -3.06E-06
    62 OT DIIS     0.15E+00    0.5     0.00004327      -107.0247207988 -5.85E-06
    63 OT DIIS     0.15E+00    0.5     0.00004323      -107.0247259549 -5.16E-06
    64 OT DIIS     0.15E+00    0.5     0.00004051      -107.0247319374 -5.98E-06
    65 OT DIIS     0.15E+00    0.5     0.00004018      -107.0247360768 -4.14E-06
    66 OT DIIS     0.15E+00    0.5     0.00003853      -107.0247413941 -5.32E-06
    67 OT DIIS     0.15E+00    0.5     0.00003748      -107.0247455716 -4.18E-06
    68 OT DIIS     0.15E+00    0.5     0.00003593      -107.0247502518 -4.68E-06
    69 OT DIIS     0.15E+00    0.5     0.00003511      -107.0247532134 -2.96E-06
    70 OT DIIS     0.15E+00    0.5     0.00002926      -107.0247573747 -4.16E-06
    71 OT DIIS     0.15E+00    0.5     0.00002790      -107.0247600192 -2.64E-06
    72 OT DIIS     0.15E+00    0.5     0.00002687      -107.0247622737 -2.25E-06
    73 OT DIIS     0.15E+00    0.5     0.00002645      -107.0247641360 -1.86E-06
    74 OT DIIS     0.15E+00    0.5     0.00002413      -107.0247656314 -1.50E-06
    75 OT DIIS     0.15E+00    0.5     0.00002456      -107.0247668950 -1.26E-06
    76 OT DIIS     0.15E+00    0.5     0.00002232      -107.0247680003 -1.11E-06
    77 OT DIIS     0.15E+00    0.5     0.00002135      -107.0247686487 -6.48E-07
    78 OT DIIS     0.15E+00    0.5     0.00001897      -107.0247694347 -7.86E-07
    79 OT DIIS     0.15E+00    0.5     0.00001872      -107.0247702068 -7.72E-07
    80 OT DIIS     0.15E+00    0.5     0.00001775      -107.0247708138 -6.07E-07
    81 OT DIIS     0.15E+00    0.5     0.00001757      -107.0247713683 -5.54E-07
    82 OT DIIS     0.15E+00    0.5     0.00001670      -107.0247718876 -5.19E-07
    83 OT DIIS     0.15E+00    0.5     0.00001625      -107.0247723376 -4.50E-07
    84 OT DIIS     0.15E+00    0.5     0.00001562      -107.0247727786 -4.41E-07
    85 OT DIIS     0.15E+00    0.5     0.00001582      -107.0247731157 -3.37E-07
    86 OT DIIS     0.15E+00    0.5     0.00001366      -107.0247734449 -3.29E-07
    87 OT DIIS     0.15E+00    0.5     0.00001293      -107.0247737588 -3.14E-07
    88 OT DIIS     0.15E+00    0.5     0.00001242      -107.0247739352 -1.76E-07
    89 OT DIIS     0.15E+00    0.5     0.00001204      -107.0247740528 -1.18E-07
    90 OT DIIS     0.15E+00    0.5     0.00001094      -107.0247741381 -8.53E-08
    91 OT DIIS     0.15E+00    0.5     0.00001124      -107.0247741658 -2.77E-08
    92 OT DIIS     0.15E+00    0.5     0.00001039      -107.0247741551  1.07E-08
    93 OT SD       0.15E+00    0.5     0.00001006      -107.0247741265  2.87E-08
    94 OT DIIS     0.15E+00    0.5     0.00002222      -107.0247741500 -2.35E-08
    95 OT SD       0.15E+00    0.5     0.00000852      -107.0247740549  9.51E-08
    96 OT SD       0.15E+00    0.5     0.00001536      -107.0247740860 -3.11E-08
    97 OT DIIS     0.15E+00    0.5     0.00004512      -107.0247739183  1.68E-07
    98 OT DIIS     0.15E+00    0.5     0.00000739      -107.0247739882 -6.99E-08
    99 OT DIIS     0.15E+00    0.5     0.00000687      -107.0247740238 -3.56E-08
   100 OT SD       0.15E+00    0.5     0.00000648      -107.0247746459 -6.22E-07
   101 OT DIIS     0.15E+00    0.5     0.00001340      -107.0247746408  5.07E-09
   102 OT SD       0.15E+00    0.5     0.00000405      -107.0247747779 -1.37E-07
   103 OT DIIS     0.15E+00    0.5     0.00000925      -107.0247747814 -3.55E-09
   104 OT DIIS     0.15E+00    0.5     0.00000333      -107.0247748136 -3.21E-08
   105 OT DIIS     0.15E+00    0.5     0.00000364      -107.0247748349 -2.13E-08
   106 OT DIIS     0.15E+00    0.5     0.00000295      -107.0247748421 -7.17E-09

  *** SCF run converged in   106 steps ***


  Electronic density on regular grids:        -65.9999999998        0.0000000002
  Core density on regular grids:               65.9999999958       -0.0000000042
  Total charge density on r-space grids:       -0.0000000040
  Total charge density g-space grids:          -0.0000000040

  Overlap energy of the core charge distribution:               0.00000427659816
  Self energy of the core charge distribution:               -264.05251484933058
  Core Hamiltonian energy:                                     80.30548769358731
  Hartree energy:                                             107.32347911564683
  Exchange-correlation energy:                                -30.57446830490764
  Dispersion energy:                                           -0.02676277365479

  Total energy:                                              -107.02477484206072

 ENERGY| Total FORCE_EVAL ( QS ) energy (a.u.):             -107.024774879560283


 --------  Informations at step =     0 ------------
  Optimization Method        =                 BFGS
  Total Energy               =      -107.0247748796
  Used time                  =               55.487
 ---------------------------------------------------

 --------------------------
 OPTIMIZATION STEP:      1
 --------------------------

  Step is scaled; Scaling factor =  0.55292

 Number of electrons:                                                         66
 Number of occupied orbitals:                                                 33
 Number of molecular orbitals:                                                33

 Number of orbital functions:                                                209
 Number of independent orbital functions:                                    209

 Extrapolation method: ASPC


 SCF WAVEFUNCTION OPTIMIZATION

  ----------------------------------- OT ---------------------------------------
  Minimizer      : DIIS                : direct inversion
                                         in the iterative subspace
                                         using   7 DIIS vectors
                                         safer DIIS on
  Preconditioner : FULL_ALL            : diagonalization, state selective
  Precond_solver : DEFAULT
  stepsize       :    0.15000000                  energy_gap     :    0.08000000
  eps_taylor     :   0.10000E-15                  max_taylor     :             4
  ----------------------------------- OT ---------------------------------------

  Step     Update method      Time    Convergence         Total energy    Change
  ------------------------------------------------------------------------------
     1 OT DIIS     0.15E+00    0.4     0.01340794      -107.1649996441 -1.07E+02
     2 OT DIIS     0.15E+00    0.5     0.00556423      -107.2915780142 -1.27E-01
     3 OT DIIS     0.15E+00    0.5     0.00845846      -107.3038348465 -1.23E-02
     4 OT DIIS     0.15E+00    0.5     0.00414033      -107.3120758801 -8.24E-03
     5 OT DIIS     0.15E+00    0.5     0.00070064      -107.3139137394 -1.84E-03
     6 OT DIIS     0.15E+00    0.5     0.00054172      -107.3139658735 -5.21E-05
     7 OT DIIS     0.15E+00    0.5     0.00011557      -107.3140166174 -5.07E-05
     8 OT DIIS     0.15E+00    0.5     0.00007933      -107.3140205834 -3.97E-06
     9 OT DIIS     0.15E+00    0.5     0.00003262      -107.3140222317 -1.65E-06
    10 OT DIIS     0.15E+00    0.5     0.00001326      -107.3140225823 -3.51E-07
    11 OT DIIS     0.15E+00    0.5     0.00000768      -107.3140226959 -1.14E-07
    12 OT DIIS     0.15E+00    0.5     0.00000481      -107.3140227334 -3.75E-08
    13 OT DIIS     0.15E+00    0.5     0.00000521      -107.3140227366 -3.21E-09
    14 OT DIIS     0.15E+00    0.5     0.00000280      -107.3140227410 -4.42E-09

  *** SCF run converged in    14 steps ***


  Electronic density on regular grids:        -66.0000000003       -0.0000000003
  Core density on regular grids:               65.9999999959       -0.0000000041
  Total charge density on r-space grids:       -0.0000000045
  Total charge density g-space grids:          -0.0000000045

  Overlap energy of the core charge distribution:               0.00000244788313
  Self energy of the core charge distribution:               -264.05251484933058
  Core Hamiltonian energy:                                     79.34828163749840
  Hartree energy:                                             107.81533459332097
  Exchange-correlation energy:                                -30.39886760143384
  Dispersion energy:                                           -0.02625896895823

  Total energy:                                              -107.31402274102015

 ENERGY| Total FORCE_EVAL ( QS ) energy (a.u.):             -107.314022741857272


 --------  Informations at step =     1 ------------
  Optimization Method        =                 BFGS
  Total Energy               =      -107.3140227419
  Real energy change         =        -0.2892478623
  Predicted change in energy =        -0.2652604704
  Scaling factor             =         0.5529160260
  Step size                  =         0.3779452266
  Trust radius               =         0.3779452266
  Decrease in energy         =                  YES
  Used time                  =                7.747

  Convergence check :
  Max. step size             =         0.3779452266
  Conv. limit for step size  =         0.0030000000
  Convergence in step size   =                   NO
  RMS step size              =         0.1442984529
  Conv. limit for RMS step   =         0.0015000000
  Convergence in RMS step    =                   NO
  Max. gradient              =         0.1215550636
  Conv. limit for gradients  =         0.0004500000
  Conv. for gradients        =                   NO
  RMS gradient               =         0.0349624863
  Conv. limit for RMS grad.  =         0.0003000000
  Conv. for gradients        =                   NO
 ---------------------------------------------------

 --------------------------
 OPTIMIZATION STEP:      2
 --------------------------

  Step is scaled; Scaling factor =  0.46561

 Number of electrons:                                                         66
 Number of occupied orbitals:                                                 33
 Number of molecular orbitals:                                                33

 Number of orbital functions:                                                209
 Number of independent orbital functions:                                    209

 Extrapolation method: ASPC


 SCF WAVEFUNCTION OPTIMIZATION

  ----------------------------------- OT ---------------------------------------
  Minimizer      : DIIS                : direct inversion
                                         in the iterative subspace
                                         using   7 DIIS vectors
                                         safer DIIS on
  Preconditioner : FULL_ALL            : diagonalization, state selective
  Precond_solver : DEFAULT
  stepsize       :    0.15000000                  energy_gap     :    0.08000000
  eps_taylor     :   0.10000E-15                  max_taylor     :             4
  ----------------------------------- OT ---------------------------------------

  Step     Update method      Time    Convergence         Total energy    Change
  ------------------------------------------------------------------------------
     1 OT DIIS     0.15E+00    0.4     0.01067376      -107.3917887913 -1.07E+02
     2 OT DIIS     0.15E+00    0.5     0.01915052      -107.4046236131 -1.28E-02
     3 OT DIIS     0.15E+00    0.5     0.00750556      -107.4461105572 -4.15E-02
     4 OT DIIS     0.15E+00    0.5     0.00421970      -107.4540415924 -7.93E-03
     5 OT DIIS     0.15E+00    0.5     0.00165776      -107.4576080491 -3.57E-03
     6 OT DIIS     0.15E+00    0.5     0.00069353      -107.4580805984 -4.73E-04
     7 OT DIIS     0.15E+00    0.5     0.00027438      -107.4581859314 -1.05E-04
     8 OT DIIS     0.15E+00    0.5     0.00014479      -107.4582213462 -3.54E-05
     9 OT DIIS     0.15E+00    0.5     0.00010547      -107.4582316347 -1.03E-05
    10 OT DIIS     0.15E+00    0.5     0.00005009      -107.4582382385 -6.60E-06
    11 OT DIIS     0.15E+00    0.5     0.00007835      -107.4582390760 -8.38E-07
    12 OT DIIS     0.15E+00    0.5     0.00002911      -107.4582401522 -1.08E-06
    13 OT DIIS     0.15E+00    0.5     0.00001864      -107.4582404067 -2.54E-07
    14 OT DIIS     0.15E+00    0.5     0.00001280      -107.4582404539 -4.72E-08
    15 OT DIIS     0.15E+00    0.5     0.00000587      -107.4582404883 -3.44E-08
    16 OT DIIS     0.15E+00    0.5     0.00000227      -107.4582404969 -8.62E-09

  *** SCF run converged in    16 steps ***


  Electronic density on regular grids:        -65.9999999996        0.0000000004
  Core density on regular grids:               65.9999999958       -0.0000000042
  Total charge density on r-space grids:       -0.0000000038
  Total charge density g-space grids:          -0.0000000038

  Overlap energy of the core charge distribution:               0.00000224104954
  Self energy of the core charge distribution:               -264.05251484933058
  Core Hamiltonian energy:                                     78.96731053743342
  Hartree energy:                                             107.99403770619836
  Exchange-correlation energy:                                -30.34098155137739
  Dispersion energy:                                           -0.02609458088407

  Total energy:                                              -107.45824049691072

 ENERGY| Total FORCE_EVAL ( QS ) energy (a.u.):             -107.458240498559704


 --------  Informations at step =     2 ------------
  Optimization Method        =                 BFGS
  Total Energy               =      -107.4582404986
  Real energy change         =        -0.1442177567
  Predicted change in energy =        -0.1640583670
  Scaling factor             =         0.4656106012
  Step size                  =         0.3779452266
  Trust radius               =         0.3779452266
  Decrease in energy         =                  YES
  Used time                  =                8.756

  Convergence check :
  Max. step size             =         0.3779452266
  Conv. limit for step size  =         0.0030000000
  Convergence in step size   =                   NO
  RMS step size              =         0.1311028327
  Conv. limit for RMS step   =         0.0015000000
  Convergence in RMS step    =                   NO
  Max. gradient              =         0.0696353416
  Conv. limit for gradients  =         0.0004500000
  Conv. for gradients        =                   NO
  RMS gradient               =         0.0217316081
  Conv. limit for RMS grad.  =         0.0003000000
  Conv. for gradients        =                   NO
 ---------------------------------------------------

 --------------------------
 OPTIMIZATION STEP:      3
 --------------------------

  Step is scaled; Scaling factor =  0.72909

 Number of electrons:                                                         66
 Number of occupied orbitals:                                                 33
 Number of molecular orbitals:                                                33

 Number of orbital functions:                                                209
 Number of independent orbital functions:                                    209

 Extrapolation method: ASPC


 SCF WAVEFUNCTION OPTIMIZATION

  ----------------------------------- OT ---------------------------------------
  Minimizer      : DIIS                : direct inversion
                                         in the iterative subspace
                                         using   7 DIIS vectors
                                         safer DIIS on
  Preconditioner : FULL_ALL            : diagonalization, state selective
  Precond_solver : DEFAULT
  stepsize       :    0.15000000                  energy_gap     :    0.08000000
  eps_taylor     :   0.10000E-15                  max_taylor     :             4
  ----------------------------------- OT ---------------------------------------

  Step     Update method      Time    Convergence         Total energy    Change
  ------------------------------------------------------------------------------
     1 OT DIIS     0.15E+00    0.4     0.01035993      -107.4432576593 -1.07E+02
     2 OT DIIS     0.15E+00    0.5     0.01171311      -107.4939721838 -5.07E-02
     3 OT DIIS     0.15E+00    0.5     0.00925964      -107.5066980004 -1.27E-02
     4 OT DIIS     0.15E+00    0.5     0.00417229      -107.5194150213 -1.27E-02
     5 OT DIIS     0.15E+00    0.5     0.00070769      -107.5223930204 -2.98E-03
     6 OT DIIS     0.15E+00    0.5     0.00033604      -107.5225002321 -1.07E-04
     7 OT DIIS     0.15E+00    0.5     0.00016409      -107.5225315467 -3.13E-05
     8 OT DIIS     0.15E+00    0.5     0.00010873      -107.5225457019 -1.42E-05
     9 OT DIIS     0.15E+00    0.5     0.00006836      -107.5225503014 -4.60E-06
    10 OT DIIS     0.15E+00    0.5     0.00003040      -107.5225523982 -2.10E-06
    11 OT DIIS     0.15E+00    0.5     0.00002567      -107.5225532941 -8.96E-07
    12 OT DIIS     0.15E+00    0.5     0.00003064      -107.5225533894 -9.53E-08
    13 OT DIIS     0.15E+00    0.5     0.00001476      -107.5225535688 -1.79E-07
    14 OT DIIS     0.15E+00    0.5     0.00000833      -107.5225536177 -4.89E-08
    15 OT DIIS     0.15E+00    0.5     0.00000326      -107.5225536317 -1.40E-08
    16 OT DIIS     0.15E+00    0.5     0.00000159      -107.5225536346 -2.84E-09

  *** SCF run converged in    16 steps ***


  Electronic density on regular grids:        -65.9999999997        0.0000000003
  Core density on regular grids:               65.9999999959       -0.0000000041
  Total charge density on r-space grids:       -0.0000000038
  Total charge density g-space grids:          -0.0000000038

  Overlap energy of the core charge distribution:               0.00000229714560
  Self energy of the core charge distribution:               -264.05251484933058
  Core Hamiltonian energy:                                     78.94355036040169
  Hartree energy:                                             107.96332843210243
  Exchange-correlation energy:                                -30.35112680366823
  Dispersion energy:                                           -0.02579307123574

  Total energy:                                              -107.52255363458482

 ENERGY| Total FORCE_EVAL ( QS ) energy (a.u.):             -107.522553635293008


 --------  Informations at step =     3 ------------
  Optimization Method        =                 BFGS
  Total Energy               =      -107.5225536353
  Real energy change         =        -0.0643131367
  Predicted change in energy =        -0.0619220285
  Scaling factor             =         0.7290882468
  Step size                  =         0.3779452266
  Trust radius               =         0.3779452266
  Decrease in energy         =                  YES
  Used time                  =                8.675

  Convergence check :
  Max. step size             =         0.3779452266
  Conv. limit for step size  =         0.0030000000
  Convergence in step size   =                   NO
  RMS step size              =         0.1091076830
  Conv. limit for RMS step   =         0.0015000000
  Convergence in RMS step    =                   NO
  Max. gradient              =         0.0658633403
  Conv. limit for gradients  =         0.0004500000
  Conv. for gradients        =                   NO
  RMS gradient               =         0.0168571432
  Conv. limit for RMS grad.  =         0.0003000000
  Conv. for gradients        =                   NO
 ---------------------------------------------------

 --------------------------
 OPTIMIZATION STEP:      4
 --------------------------

  Step is scaled; Scaling factor =  0.69844

 Number of electrons:                                                         66
 Number of occupied orbitals:                                                 33
 Number of molecular orbitals:                                                33

 Number of orbital functions:                                                209
 Number of independent orbital functions:                                    209

 Extrapolation method: ASPC


 SCF WAVEFUNCTION OPTIMIZATION

  ----------------------------------- OT ---------------------------------------
  Minimizer      : DIIS                : direct inversion
                                         in the iterative subspace
                                         using   7 DIIS vectors
                                         safer DIIS on
  Preconditioner : FULL_ALL            : diagonalization, state selective
  Precond_solver : DEFAULT
  stepsize       :    0.15000000                  energy_gap     :    0.08000000
  eps_taylor     :   0.10000E-15                  max_taylor     :             4
  ----------------------------------- OT ---------------------------------------

  Step     Update method      Time    Convergence         Total energy    Change
  ------------------------------------------------------------------------------
     1 OT DIIS     0.15E+00    0.4     0.01217839      -107.4647245711 -1.07E+02
     2 OT DIIS     0.15E+00    0.5     0.01527803      -107.5070804250 -4.24E-02
     3 OT DIIS     0.15E+00    0.5     0.00710275      -107.5421321532 -3.51E-02
     4 OT DIIS     0.15E+00    0.5     0.00568919      -107.5489554190 -6.82E-03
     5 OT DIIS     0.15E+00    0.5     0.00087871      -107.5548964089 -5.94E-03
     6 OT DIIS     0.15E+00    0.5     0.00050569      -107.5550807675 -1.84E-04
     7 OT DIIS     0.15E+00    0.5     0.00029030      -107.5551344604 -5.37E-05
     8 OT DIIS     0.15E+00    0.5     0.00011333      -107.5551651065 -3.06E-05
     9 OT DIIS     0.15E+00    0.5     0.00010424      -107.5551699300 -4.82E-06
    10 OT DIIS     0.15E+00    0.5     0.00003842      -107.5551735744 -3.64E-06
    11 OT DIIS     0.15E+00    0.5     0.00003707      -107.5551745168 -9.42E-07
    12 OT DIIS     0.15E+00    0.5     0.00002768      -107.5551749118 -3.95E-07
    13 OT DIIS     0.15E+00    0.5     0.00001689      -107.5551750774 -1.66E-07
    14 OT DIIS     0.15E+00    0.5     0.00000963      -107.5551751567 -7.93E-08
    15 OT DIIS     0.15E+00    0.5     0.00000602      -107.5551751850 -2.83E-08
    16 OT DIIS     0.15E+00    0.5     0.00000349      -107.5551751954 -1.04E-08
    17 OT DIIS     0.15E+00    0.5     0.00000214      -107.5551752005 -5.09E-09

  *** SCF run converged in    17 steps ***


  Electronic density on regular grids:        -66.0000000000        0.0000000000
  Core density on regular grids:               65.9999999958       -0.0000000042
  Total charge density on r-space grids:       -0.0000000041
  Total charge density g-space grids:          -0.0000000041

  Overlap energy of the core charge distribution:               0.00000242031975
  Self energy of the core charge distribution:               -264.05251484933058
  Core Hamiltonian energy:                                     78.81447389907623
  Hartree energy:                                             108.02996912115509
  Exchange-correlation energy:                                -30.32179994757001
  Dispersion energy:                                           -0.02530584416479

  Total energy:                                              -107.55517520051433

 ENERGY| Total FORCE_EVAL ( QS ) energy (a.u.):             -107.555175201484928


 --------  Informations at step =     4 ------------
  Optimization Method        =                 BFGS
  Total Energy               =      -107.5551752015
  Real energy change         =        -0.0326215662
  Predicted change in energy =        -0.0301931638
  Scaling factor             =         0.6984424655
  Step size                  =         0.3779452266
  Trust radius               =         0.3779452266
  Decrease in energy         =                  YES
  Used time                  =                9.200

  Convergence check :
  Max. step size             =         0.3779452266
  Conv. limit for step size  =         0.0030000000
  Convergence in step size   =                   NO
  RMS step size              =         0.0843430180
  Conv. limit for RMS step   =         0.0015000000
  Convergence in RMS step    =                   NO
  Max. gradient              =         0.0328768031
  Conv. limit for gradients  =         0.0004500000
  Conv. for gradients        =                   NO
  RMS gradient               =         0.0123449237
  Conv. limit for RMS grad.  =         0.0003000000
  Conv. for gradients        =                   NO
 ---------------------------------------------------

 --------------------------
 OPTIMIZATION STEP:      5
 --------------------------

  Step is scaled; Scaling factor =  0.72957

 Number of electrons:                                                         66
 Number of occupied orbitals:                                                 33
 Number of molecular orbitals:                                                33

 Number of orbital functions:                                                209
 Number of independent orbital functions:                                    209

 Extrapolation method: ASPC


 SCF WAVEFUNCTION OPTIMIZATION

  ----------------------------------- OT ---------------------------------------
  Minimizer      : DIIS                : direct inversion
                                         in the iterative subspace
                                         using   7 DIIS vectors
                                         safer DIIS on
  Preconditioner : FULL_ALL            : diagonalization, state selective
  Precond_solver : DEFAULT
  stepsize       :    0.15000000                  energy_gap     :    0.08000000
  eps_taylor     :   0.10000E-15                  max_taylor     :             4
  ----------------------------------- OT ---------------------------------------

  Step     Update method      Time    Convergence         Total energy    Change
  ------------------------------------------------------------------------------
     1 OT DIIS     0.15E+00    0.4     0.01014542      -107.5045658116 -1.08E+02
     2 OT DIIS     0.15E+00    0.5     0.01169889      -107.5455883256 -4.10E-02
     3 OT DIIS     0.15E+00    0.5     0.00625966      -107.5639903216 -1.84E-02
     4 OT DIIS     0.15E+00    0.5     0.00237159      -107.5731208199 -9.13E-03
     5 OT DIIS     0.15E+00    0.5     0.00071220      -107.5743502491 -1.23E-03
     6 OT DIIS     0.15E+00    0.5     0.00033295      -107.5744752746 -1.25E-04
     7 OT DIIS     0.15E+00    0.5     0.00030476      -107.5745095478 -3.43E-05
     8 OT DIIS     0.15E+00    0.5     0.00014042      -107.5745441306 -3.46E-05
     9 OT DIIS     0.15E+00    0.5     0.00009516      -107.5745582479 -1.41E-05
    10 OT DIIS     0.15E+00    0.5     0.00006889      -107.5745667749 -8.53E-06
    11 OT DIIS     0.15E+00    0.5     0.00002950      -107.5745733700 -6.60E-06
    12 OT DIIS     0.15E+00    0.5     0.00002177      -107.5745741806 -8.11E-07
    13 OT DIIS     0.15E+00    0.5     0.00001477      -107.5745744969 -3.16E-07
    14 OT DIIS     0.15E+00    0.5     0.00001368      -107.5745746106 -1.14E-07
    15 OT DIIS     0.15E+00    0.5     0.00000866      -107.5745746788 -6.82E-08
    16 OT DIIS     0.15E+00    0.5     0.00000793      -107.5745747197 -4.09E-08
    17 OT DIIS     0.15E+00    0.5     0.00000332      -107.5745747392 -1.95E-08
    18 OT DIIS     0.15E+00    0.5     0.00000253      -107.5745747461 -6.90E-09

  *** SCF run converged in    18 steps ***


  Electronic density on regular grids:        -66.0000000003       -0.0000000003
  Core density on regular grids:               65.9999999959       -0.0000000041
  Total charge density on r-space grids:       -0.0000000044
  Total charge density g-space grids:          -0.0000000044

  Overlap energy of the core charge distribution:               0.00000251513159
  Self energy of the core charge distribution:               -264.05251484933058
  Core Hamiltonian energy:                                     78.69553494413658
  Hartree energy:                                             108.09678998855361
  Exchange-correlation energy:                                -30.28953545348065
  Dispersion energy:                                           -0.02485189112961

  Total energy:                                              -107.57457474611907

 ENERGY| Total FORCE_EVAL ( QS ) energy (a.u.):             -107.574574748308876


 --------  Informations at step =     5 ------------
  Optimization Method        =                 BFGS
  Total Energy               =      -107.5745747483
  Real energy change         =        -0.0193995468
  Predicted change in energy =        -0.0210859007
  Scaling factor             =         0.7295730210
  Step size                  =         0.3779452266
  Trust radius               =         0.3779452266
  Decrease in energy         =                  YES
  Used time                  =                9.716

  Convergence check :
  Max. step size             =         0.3779452266
  Conv. limit for step size  =         0.0030000000
  Convergence in step size   =                   NO
  RMS step size              =         0.0911992440
  Conv. limit for RMS step   =         0.0015000000
  Convergence in RMS step    =                   NO
  Max. gradient              =         0.0514125070
  Conv. limit for gradients  =         0.0004500000
  Conv. for gradients        =                   NO
  RMS gradient               =         0.0148471829
  Conv. limit for RMS grad.  =         0.0003000000
  Conv. for gradients        =                   NO
 ---------------------------------------------------

 --------------------------
 OPTIMIZATION STEP:      6
 --------------------------

 Number of electrons:                                                         66
 Number of occupied orbitals:                                                 33
 Number of molecular orbitals:                                                33

 Number of orbital functions:                                                209
 Number of independent orbital functions:                                    209

 Extrapolation method: ASPC


 SCF WAVEFUNCTION OPTIMIZATION

  ----------------------------------- OT ---------------------------------------
  Minimizer      : DIIS                : direct inversion
                                         in the iterative subspace
                                         using   7 DIIS vectors
                                         safer DIIS on
  Preconditioner : FULL_ALL            : diagonalization, state selective
  Precond_solver : DEFAULT
  stepsize       :    0.15000000                  energy_gap     :    0.08000000
  eps_taylor     :   0.10000E-15                  max_taylor     :             4
  ----------------------------------- OT ---------------------------------------

  Step     Update method      Time    Convergence         Total energy    Change
  ------------------------------------------------------------------------------
     1 OT DIIS     0.15E+00    0.4     0.00864599      -107.5368679904 -1.08E+02
     2 OT DIIS     0.15E+00    0.5     0.00645729      -107.5761010151 -3.92E-02
     3 OT DIIS     0.15E+00    0.5     0.00490274      -107.5840214995 -7.92E-03
     4 OT DIIS     0.15E+00    0.5     0.00307751      -107.5888478835 -4.83E-03
     5 OT DIIS     0.15E+00    0.5     0.00063624      -107.5905207463 -1.67E-03
     6 OT DIIS     0.15E+00    0.5     0.00039536      -107.5906005267 -7.98E-05
     7 OT DIIS     0.15E+00    0.5     0.00019037      -107.5906375862 -3.71E-05
     8 OT DIIS     0.15E+00    0.5     0.00010646      -107.5906597049 -2.21E-05
     9 OT DIIS     0.15E+00    0.5     0.00006675      -107.5906672759 -7.57E-06
    10 OT DIIS     0.15E+00    0.5     0.00002215      -107.5906692831 -2.01E-06
    11 OT DIIS     0.15E+00    0.5     0.00001738      -107.5906695263 -2.43E-07
    12 OT DIIS     0.15E+00    0.5     0.00001277      -107.5906696140 -8.77E-08
    13 OT DIIS     0.15E+00    0.5     0.00001058      -107.5906696388 -2.48E-08
    14 OT DIIS     0.15E+00    0.5     0.00000570      -107.5906696692 -3.04E-08
    15 OT DIIS     0.15E+00    0.5     0.00000429      -107.5906696794 -1.02E-08
    16 OT DIIS     0.15E+00    0.5     0.00000298      -107.5906696905 -1.10E-08

  *** SCF run converged in    16 steps ***


  Electronic density on regular grids:        -66.0000000000        0.0000000000
  Core density on regular grids:               65.9999999958       -0.0000000042
  Total charge density on r-space grids:       -0.0000000042
  Total charge density g-space grids:          -0.0000000042

  Overlap energy of the core charge distribution:               0.00000246599561
  Self energy of the core charge distribution:               -264.05251484933058
  Core Hamiltonian energy:                                     78.66393393458873
  Hartree energy:                                             108.09510340507245
  Exchange-correlation energy:                                -30.27264408898522
  Dispersion energy:                                           -0.02455055780606

  Total energy:                                              -107.59066969046505

 ENERGY| Total FORCE_EVAL ( QS ) energy (a.u.):             -107.590669702490899


 --------  Informations at step =     6 ------------
  Optimization Method        =                 BFGS
  Total Energy               =      -107.5906697025
  Real energy change         =        -0.0160949542
  Predicted change in energy =        -0.0124984807
  Scaling factor             =         0.7295730210
  Step size                  =         0.2884307517
  Trust radius               =         0.3779452266
  Decrease in energy         =                  YES
  Used time                  =                8.694

  Convergence check :
  Max. step size             =         0.2884307517
  Conv. limit for step size  =         0.0030000000
  Convergence in step size   =                   NO
  RMS step size              =         0.0788119848
  Conv. limit for RMS step   =         0.0015000000
  Convergence in RMS step    =                   NO
  Max. gradient              =         0.0439892338
  Conv. limit for gradients  =         0.0004500000
  Conv. for gradients        =                   NO
  RMS gradient               =         0.0130928924
  Conv. limit for RMS grad.  =         0.0003000000
  Conv. for gradients        =                   NO
 ---------------------------------------------------

 --------------------------
 OPTIMIZATION STEP:      7
 --------------------------

  Step is scaled; Scaling factor =  0.75395

 Number of electrons:                                                         66
 Number of occupied orbitals:                                                 33
 Number of molecular orbitals:                                                33

 Number of orbital functions:                                                209
 Number of independent orbital functions:                                    209

 Extrapolation method: ASPC


 SCF WAVEFUNCTION OPTIMIZATION

  ----------------------------------- OT ---------------------------------------
  Minimizer      : DIIS                : direct inversion
                                         in the iterative subspace
                                         using   7 DIIS vectors
                                         safer DIIS on
  Preconditioner : FULL_ALL            : diagonalization, state selective
  Precond_solver : DEFAULT
  stepsize       :    0.15000000                  energy_gap     :    0.08000000
  eps_taylor     :   0.10000E-15                  max_taylor     :             4
  ----------------------------------- OT ---------------------------------------

  Step     Update method      Time    Convergence         Total energy    Change
  ------------------------------------------------------------------------------
     1 OT DIIS     0.15E+00    0.4     0.00933405      -107.5533941876 -1.08E+02
     2 OT DIIS     0.15E+00    0.5     0.01004534      -107.5888394091 -3.54E-02
     3 OT DIIS     0.15E+00    0.5     0.00571597      -107.6049244223 -1.61E-02
     4 OT DIIS     0.15E+00    0.5     0.00338038      -107.6119982180 -7.07E-03
     5 OT DIIS     0.15E+00    0.5     0.00102452      -107.6145455099 -2.55E-03
     6 OT DIIS     0.15E+00    0.5     0.00087847      -107.6150785497 -5.33E-04
     7 OT DIIS     0.15E+00    0.5     0.00082152      -107.6157012670 -6.23E-04
     8 OT DIIS     0.15E+00    0.5     0.00067287      -107.6166811508 -9.80E-04
     9 OT DIIS     0.15E+00    0.5     0.00045829      -107.6172349953 -5.54E-04
    10 OT DIIS     0.15E+00    0.5     0.00034746      -107.6173496449 -1.15E-04
    11 OT DIIS     0.15E+00    0.5     0.00015233      -107.6174289285 -7.93E-05
    12 OT DIIS     0.15E+00    0.5     0.00015973      -107.6174268748  2.05E-06
    13 OT DIIS     0.15E+00    0.5     0.00012002      -107.6174337070 -6.83E-06
    14 OT DIIS     0.15E+00    0.5     0.00002609      -107.6174375979 -3.89E-06
    15 OT DIIS     0.15E+00    0.5     0.00001461      -107.6174379062 -3.08E-07
    16 OT DIIS     0.15E+00    0.5     0.00001448      -107.6174379716 -6.53E-08
    17 OT DIIS     0.15E+00    0.5     0.00000618      -107.6174380066 -3.50E-08
    18 OT DIIS     0.15E+00    0.5     0.00000425      -107.6174380249 -1.83E-08
    19 OT DIIS     0.15E+00    0.5     0.00000254      -107.6174380269 -2.00E-09

  *** SCF run converged in    19 steps ***


  Electronic density on regular grids:        -65.9999999992        0.0000000008
  Core density on regular grids:               65.9999999958       -0.0000000042
  Total charge density on r-space grids:       -0.0000000034
  Total charge density g-space grids:          -0.0000000034

  Overlap energy of the core charge distribution:               0.00000226646183
  Self energy of the core charge distribution:               -264.05251484933058
  Core Hamiltonian energy:                                     78.55547124420929
  Hartree energy:                                             108.12755168634560
  Exchange-correlation energy:                                -30.22378175422681
  Dispersion energy:                                           -0.02416662036698

  Total energy:                                              -107.61743802690765

 ENERGY| Total FORCE_EVAL ( QS ) energy (a.u.):             -107.617438030220683


 --------  Informations at step =     7 ------------
  Optimization Method        =                 BFGS
  Total Energy               =      -107.6174380302
  Real energy change         =        -0.0267683277
  Predicted change in energy =        -0.0147123702
  Scaling factor             =         0.7539513261
  Step size                  =         0.3779452266
  Trust radius               =         0.3779452266
  Decrease in energy         =                  YES
  Used time                  =               10.181

  Convergence check :
  Max. step size             =         0.3779452266
  Conv. limit for step size  =         0.0030000000
  Convergence in step size   =                   NO
  RMS step size              =         0.1072314917
  Conv. limit for RMS step   =         0.0015000000
  Convergence in RMS step    =                   NO
  Max. gradient              =         0.0413586672
  Conv. limit for gradients  =         0.0004500000
  Conv. for gradients        =                   NO
  RMS gradient               =         0.0148764559
  Conv. limit for RMS grad.  =         0.0003000000
  Conv. for gradients        =                   NO
 ---------------------------------------------------

 --------------------------
 OPTIMIZATION STEP:      8
 --------------------------

  Step is scaled; Scaling factor =  0.00554

 Number of electrons:                                                         66
 Number of occupied orbitals:                                                 33
 Number of molecular orbitals:                                                33

 Number of orbital functions:                                                209
 Number of independent orbital functions:                                    209

 Extrapolation method: ASPC


 SCF WAVEFUNCTION OPTIMIZATION

  ----------------------------------- OT ---------------------------------------
  Minimizer      : DIIS                : direct inversion
                                         in the iterative subspace
                                         using   7 DIIS vectors
                                         safer DIIS on
  Preconditioner : FULL_ALL            : diagonalization, state selective
  Precond_solver : DEFAULT
  stepsize       :    0.15000000                  energy_gap     :    0.08000000
  eps_taylor     :   0.10000E-15                  max_taylor     :             4
  ----------------------------------- OT ---------------------------------------

  Step     Update method      Time    Convergence         Total energy    Change
  ------------------------------------------------------------------------------
     1 OT DIIS     0.15E+00    0.4     0.02224394      -107.5178687929 -1.08E+02
     2 OT DIIS     0.15E+00    0.5     0.03749848      -107.3342642030  1.84E-01
     3 OT DIIS     0.15E+00    0.5     0.01222839      -107.5810428886 -2.47E-01
     4 OT DIIS     0.15E+00    0.5     0.01513452      -107.5890189545 -7.98E-03
     5 OT DIIS     0.15E+00    0.5     0.00371292      -107.6159064153 -2.69E-02
     6 OT DIIS     0.15E+00    0.5     0.00183054      -107.6199873154 -4.08E-03
     7 OT DIIS     0.15E+00    0.5     0.00136398      -107.6215102163 -1.52E-03
     8 OT DIIS     0.15E+00    0.5     0.00074297      -107.6223369044 -8.27E-04
     9 OT DIIS     0.15E+00    0.5     0.00074557      -107.6226784708 -3.42E-04
    10 OT DIIS     0.15E+00    0.5     0.00049460      -107.6227378869 -5.94E-05
    11 OT DIIS     0.15E+00    0.5     0.00015196      -107.6228564711 -1.19E-04
    12 OT DIIS     0.15E+00    0.5     0.00016195      -107.6228701208 -1.36E-05
    13 OT DIIS     0.15E+00    0.5     0.00008765      -107.6228756768 -5.56E-06
    14 OT DIIS     0.15E+00    0.5     0.00006611      -107.6228775968 -1.92E-06
    15 OT DIIS     0.15E+00    0.5     0.00002706      -107.6228790158 -1.42E-06
    16 OT DIIS     0.15E+00    0.5     0.00002221      -107.6228793062 -2.90E-07
    17 OT DIIS     0.15E+00    0.5     0.00001435      -107.6228795140 -2.08E-07
    18 OT DIIS     0.15E+00    0.5     0.00001382      -107.6228795635 -4.95E-08
    19 OT DIIS     0.15E+00    0.5     0.00000752      -107.6228796179 -5.44E-08
    20 OT DIIS     0.15E+00    0.5     0.00000611      -107.6228796515 -3.36E-08
    21 OT DIIS     0.15E+00    0.5     0.00000598      -107.6228796587 -7.19E-09
    22 OT DIIS     0.15E+00    0.5     0.00000389      -107.6228796688 -1.01E-08
    23 OT DIIS     0.15E+00    0.5     0.00000215      -107.6228796733 -4.44E-09

  *** SCF run converged in    23 steps ***


  Electronic density on regular grids:        -65.9999999998        0.0000000002
  Core density on regular grids:               65.9999999958       -0.0000000042
  Total charge density on r-space grids:       -0.0000000040
  Total charge density g-space grids:          -0.0000000040

  Overlap energy of the core charge distribution:               0.00000187949080
  Self energy of the core charge distribution:               -264.05251484933058
  Core Hamiltonian energy:                                     78.38263112817720
  Hartree energy:                                             108.23140663565913
  Exchange-correlation energy:                                -30.16059342862296
  Dispersion energy:                                           -0.02381103864051

  Total energy:                                              -107.62287967326692

 ENERGY| Total FORCE_EVAL ( QS ) energy (a.u.):             -107.622879675811262


 --------  Informations at step =     8 ------------
  Optimization Method        =                 BFGS
  Total Energy               =      -107.6228796758
  Real energy change         =        -0.0054416456
  Predicted change in energy =        -0.0226794671
  Scaling factor             =         0.0055384004
  Step size                  =         0.3779452266
  Trust radius               =         0.3779452266
  Decrease in energy         =                  YES
  Used time                  =               12.187

  Convergence check :
  Max. step size             =         0.3779452266
  Conv. limit for step size  =         0.0030000000
  Convergence in step size   =                   NO
  RMS step size              =         0.1045679551
  Conv. limit for RMS step   =         0.0015000000
  Convergence in RMS step    =                   NO
  Max. gradient              =         0.0580661331
  Conv. limit for gradients  =         0.0004500000
  Conv. for gradients        =                   NO
  RMS gradient               =         0.0204962714
  Conv. limit for RMS grad.  =         0.0003000000
  Conv. for gradients        =                   NO
 ---------------------------------------------------

 --------------------------
 OPTIMIZATION STEP:      9
 --------------------------

 Number of electrons:                                                         66
 Number of occupied orbitals:                                                 33
 Number of molecular orbitals:                                                33

 Number of orbital functions:                                                209
 Number of independent orbital functions:                                    209

 Extrapolation method: ASPC


 SCF WAVEFUNCTION OPTIMIZATION

  ----------------------------------- OT ---------------------------------------
  Minimizer      : DIIS                : direct inversion
                                         in the iterative subspace
                                         using   7 DIIS vectors
                                         safer DIIS on
  Preconditioner : FULL_ALL            : diagonalization, state selective
  Precond_solver : DEFAULT
  stepsize       :    0.15000000                  energy_gap     :    0.08000000
  eps_taylor     :   0.10000E-15                  max_taylor     :             4
  ----------------------------------- OT ---------------------------------------

  Step     Update method      Time    Convergence         Total energy    Change
  ------------------------------------------------------------------------------
     1 OT DIIS     0.15E+00    0.4     0.01099548      -107.5513648033 -1.08E+02
     2 OT DIIS     0.15E+00    0.5     0.01457728      -107.5999048696 -4.85E-02
     3 OT DIIS     0.15E+00    0.5     0.00988727      -107.6180521423 -1.81E-02
     4 OT DIIS     0.15E+00    0.5     0.00340301      -107.6358239756 -1.78E-02
     5 OT DIIS     0.15E+00    0.5     0.00155090      -107.6397353263 -3.91E-03
     6 OT DIIS     0.15E+00    0.5     0.00111811      -107.6406342486 -8.99E-04
     7 OT DIIS     0.15E+00    0.5     0.00047721      -107.6412273127 -5.93E-04
     8 OT DIIS     0.15E+00    0.5     0.00025798      -107.6413910632 -1.64E-04
     9 OT DIIS     0.15E+00    0.5     0.00013557      -107.6414151302 -2.41E-05
    10 OT DIIS     0.15E+00    0.5     0.00007132      -107.6414204844 -5.35E-06
    11 OT DIIS     0.15E+00    0.5     0.00003721      -107.6414222518 -1.77E-06
    12 OT DIIS     0.15E+00    0.5     0.00001154      -107.6414225085 -2.57E-07
    13 OT DIIS     0.15E+00    0.5     0.00000380      -107.6414225351 -2.66E-08
    14 OT DIIS     0.15E+00    0.5     0.00000223      -107.6414225397 -4.61E-09

  *** SCF run converged in    14 steps ***


  Electronic density on regular grids:        -65.9999999997        0.0000000003
  Core density on regular grids:               65.9999999958       -0.0000000042
  Total charge density on r-space grids:       -0.0000000038
  Total charge density g-space grids:          -0.0000000038

  Overlap energy of the core charge distribution:               0.00000325716048
  Self energy of the core charge distribution:               -264.05251484933058
  Core Hamiltonian energy:                                     78.80220194056673
  Hartree energy:                                             107.91443020635032
  Exchange-correlation energy:                                -30.28141826779644
  Dispersion energy:                                           -0.02412482663241

  Total energy:                                              -107.64142253968191

 ENERGY| Total FORCE_EVAL ( QS ) energy (a.u.):             -107.641422540805848


 --------  Informations at step =     9 ------------
  Optimization Method        =                 BFGS
  Total Energy               =      -107.6414225408
  Real energy change         =        -0.0185428650
  Predicted change in energy =        -0.0179503771
  Scaling factor             =         0.0055384004
  Step size                  =         0.1284348832
  Trust radius               =         0.3779452266
  Decrease in energy         =                  YES
  Used time                  =                7.639

  Convergence check :
  Max. step size             =         0.1284348832
  Conv. limit for step size  =         0.0030000000
  Convergence in step size   =                   NO
  RMS step size              =         0.0483701990
  Conv. limit for RMS step   =         0.0015000000
  Convergence in RMS step    =                   NO
  Max. gradient              =         0.0569961643
  Conv. limit for gradients  =         0.0004500000
  Conv. for gradients        =                   NO
  RMS gradient               =         0.0200941366
  Conv. limit for RMS grad.  =         0.0003000000
  Conv. for gradients        =                   NO
 ---------------------------------------------------

 --------------------------
 OPTIMIZATION STEP:     10
 --------------------------

 Number of electrons:                                                         66
 Number of occupied orbitals:                                                 33
 Number of molecular orbitals:                                                33

 Number of orbital functions:                                                209
 Number of independent orbital functions:                                    209

 Extrapolation method: ASPC


 SCF WAVEFUNCTION OPTIMIZATION

  ----------------------------------- OT ---------------------------------------
  Minimizer      : DIIS                : direct inversion
                                         in the iterative subspace
                                         using   7 DIIS vectors
                                         safer DIIS on
  Preconditioner : FULL_ALL            : diagonalization, state selective
  Precond_solver : DEFAULT
  stepsize       :    0.15000000                  energy_gap     :    0.08000000
  eps_taylor     :   0.10000E-15                  max_taylor     :             4
  ----------------------------------- OT ---------------------------------------

  Step     Update method      Time    Convergence         Total energy    Change
  ------------------------------------------------------------------------------
     1 OT DIIS     0.15E+00    0.4     0.01274382      -107.5339204302 -1.08E+02
     2 OT DIIS     0.15E+00    0.5     0.00716867      -107.6316701626 -9.77E-02
     3 OT DIIS     0.15E+00    0.5     0.00810201      -107.6416020459 -9.93E-03
     4 OT DIIS     0.15E+00    0.5     0.00650578      -107.6492000300 -7.60E-03
     5 OT DIIS     0.15E+00    0.5     0.00072193      -107.6549000506 -5.70E-03
     6 OT DIIS     0.15E+00    0.5     0.00039008      -107.6549992214 -9.92E-05
     7 OT DIIS     0.15E+00    0.5     0.00010379      -107.6550339327 -3.47E-05
     8 OT DIIS     0.15E+00    0.5     0.00003977      -107.6550387068 -4.77E-06
     9 OT DIIS     0.15E+00    0.5     0.00001494      -107.6550395480 -8.41E-07
    10 OT DIIS     0.15E+00    0.5     0.00001034      -107.6550396513 -1.03E-07
    11 OT DIIS     0.15E+00    0.5     0.00000571      -107.6550396931 -4.18E-08
    12 OT DIIS     0.15E+00    0.5     0.00000659      -107.6550397033 -1.02E-08
    13 OT DIIS     0.15E+00    0.5     0.00000479      -107.6550397090 -5.71E-09
    14 OT DIIS     0.15E+00    0.5     0.00000156      -107.6550397130 -4.06E-09

  *** SCF run converged in    14 steps ***


  Electronic density on regular grids:        -65.9999999997        0.0000000003
  Core density on regular grids:               65.9999999959       -0.0000000041
  Total charge density on r-space grids:       -0.0000000039
  Total charge density g-space grids:          -0.0000000039

  Overlap energy of the core charge distribution:               0.00000328055832
  Self energy of the core charge distribution:               -264.05251484933058
  Core Hamiltonian energy:                                     78.73023456750589
  Hartree energy:                                             107.96951180123020
  Exchange-correlation energy:                                -30.27809483918934
  Dispersion energy:                                           -0.02417967382164

  Total energy:                                              -107.65503971304717

 ENERGY| Total FORCE_EVAL ( QS ) energy (a.u.):             -107.655039713627062


 --------  Informations at step =    10 ------------
  Optimization Method        =                 BFGS
  Total Energy               =      -107.6550397136
  Real energy change         =        -0.0136171728
  Predicted change in energy =        -0.0131257427
  Scaling factor             =         0.0055384004
  Step size                  =         0.2091505032
  Trust radius               =         0.3779452266
  Decrease in energy         =                  YES
  Used time                  =                7.650

  Convergence check :
  Max. step size             =         0.2091505032
  Conv. limit for step size  =         0.0030000000
  Convergence in step size   =                   NO
  RMS step size              =         0.0634386840
  Conv. limit for RMS step   =         0.0015000000
  Convergence in RMS step    =                   NO
  Max. gradient              =         0.0572746798
  Conv. limit for gradients  =         0.0004500000
  Conv. for gradients        =                   NO
  RMS gradient               =         0.0180869017
  Conv. limit for RMS grad.  =         0.0003000000
  Conv. for gradients        =                   NO
 ---------------------------------------------------

 --------------------------
 OPTIMIZATION STEP:     11
 --------------------------

  Step is scaled; Scaling factor =  0.96193

 Number of electrons:                                                         66
 Number of occupied orbitals:                                                 33
 Number of molecular orbitals:                                                33

 Number of orbital functions:                                                209
 Number of independent orbital functions:                                    209

 Extrapolation method: ASPC


 SCF WAVEFUNCTION OPTIMIZATION

  ----------------------------------- OT ---------------------------------------
  Minimizer      : DIIS                : direct inversion
                                         in the iterative subspace
                                         using   7 DIIS vectors
                                         safer DIIS on
  Preconditioner : FULL_ALL            : diagonalization, state selective
  Precond_solver : DEFAULT
  stepsize       :    0.15000000                  energy_gap     :    0.08000000
  eps_taylor     :   0.10000E-15                  max_taylor     :             4
  ----------------------------------- OT ---------------------------------------

  Step     Update method      Time    Convergence         Total energy    Change
  ------------------------------------------------------------------------------
     1 OT DIIS     0.15E+00    0.4     0.01054093      -107.5816651241 -1.08E+02
     2 OT DIIS     0.15E+00    0.5     0.00896968      -107.6389003783 -5.72E-02
     3 OT DIIS     0.15E+00    0.5     0.00821618      -107.6475828414 -8.68E-03
     4 OT DIIS     0.15E+00    0.5     0.00398553      -107.6578446633 -1.03E-02
     5 OT DIIS     0.15E+00    0.5     0.00031419      -107.6609098493 -3.07E-03
     6 OT DIIS     0.15E+00    0.5     0.00013527      -107.6609530421 -4.32E-05
     7 OT DIIS     0.15E+00    0.5     0.00007428      -107.6609591055 -6.06E-06
     8 OT DIIS     0.15E+00    0.5     0.00002734      -107.6609607097 -1.60E-06
     9 OT DIIS     0.15E+00    0.5     0.00000942      -107.6609609239 -2.14E-07
    10 OT DIIS     0.15E+00    0.5     0.00000460      -107.6609609474 -2.35E-08
    11 OT DIIS     0.15E+00    0.5     0.00000316      -107.6609609526 -5.20E-09
    12 OT DIIS     0.15E+00    0.5     0.00000246      -107.6609609539 -1.29E-09

  *** SCF run converged in    12 steps ***


  Electronic density on regular grids:        -65.9999999997        0.0000000003
  Core density on regular grids:               65.9999999959       -0.0000000041
  Total charge density on r-space grids:       -0.0000000039
  Total charge density g-space grids:          -0.0000000039

  Overlap energy of the core charge distribution:               0.00000355006258
  Self energy of the core charge distribution:               -264.05251484933058
  Core Hamiltonian energy:                                     78.85788004279161
  Hartree energy:                                             107.86344999958595
  Exchange-correlation energy:                                -30.30586071935793
  Dispersion energy:                                           -0.02391897765828

  Total energy:                                              -107.66096095390667

 ENERGY| Total FORCE_EVAL ( QS ) energy (a.u.):             -107.660960954840363


 --------  Informations at step =    11 ------------
  Optimization Method        =                 BFGS
  Total Energy               =      -107.6609609548
  Real energy change         =        -0.0059212412
  Predicted change in energy =        -0.0175554278
  Scaling factor             =         0.9619295597
  Step size                  =         0.3779452266
  Trust radius               =         0.3779452266
  Decrease in energy         =                  YES
  Used time                  =                6.675

  Convergence check :
  Max. step size             =         0.3779452266
  Conv. limit for step size  =         0.0030000000
  Convergence in step size   =                   NO
  RMS step size              =         0.1097730126
  Conv. limit for RMS step   =         0.0015000000
  Convergence in RMS step    =                   NO
  Max. gradient              =         0.0787102762
  Conv. limit for gradients  =         0.0004500000
  Conv. for gradients        =                   NO
  RMS gradient               =         0.0238051356
  Conv. limit for RMS grad.  =         0.0003000000
  Conv. for gradients        =                   NO
 ---------------------------------------------------

 --------------------------
 OPTIMIZATION STEP:     12
 --------------------------

 Number of electrons:                                                         66
 Number of occupied orbitals:                                                 33
 Number of molecular orbitals:                                                33

 Number of orbital functions:                                                209
 Number of independent orbital functions:                                    209

 Extrapolation method: ASPC


 SCF WAVEFUNCTION OPTIMIZATION

  ----------------------------------- OT ---------------------------------------
  Minimizer      : DIIS                : direct inversion
                                         in the iterative subspace
                                         using   7 DIIS vectors
                                         safer DIIS on
  Preconditioner : FULL_ALL            : diagonalization, state selective
  Precond_solver : DEFAULT
  stepsize       :    0.15000000                  energy_gap     :    0.08000000
  eps_taylor     :   0.10000E-15                  max_taylor     :             4
  ----------------------------------- OT ---------------------------------------

  Step     Update method      Time    Convergence         Total energy    Change
  ------------------------------------------------------------------------------
     1 OT DIIS     0.15E+00    0.4     0.01609777      -107.4856113495 -1.07E+02
     2 OT DIIS     0.15E+00    0.5     0.00812109      -107.6512622001 -1.66E-01
     3 OT DIIS     0.15E+00    0.5     0.01206793      -107.6566654234 -5.40E-03
     4 OT DIIS     0.15E+00    0.5     0.00384201      -107.6801777304 -2.35E-02
     5 OT DIIS     0.15E+00    0.5     0.00101673      -107.6827670771 -2.59E-03
     6 OT DIIS     0.15E+00    0.5     0.00030621      -107.6830188345 -2.52E-04
     7 OT DIIS     0.15E+00    0.5     0.00015944      -107.6830476084 -2.88E-05
     8 OT DIIS     0.15E+00    0.5     0.00005578      -107.6830551116 -7.50E-06
     9 OT DIIS     0.15E+00    0.5     0.00002368      -107.6830560473 -9.36E-07
    10 OT DIIS     0.15E+00    0.5     0.00001133      -107.6830562034 -1.56E-07
    11 OT DIIS     0.15E+00    0.5     0.00000602      -107.6830562432 -3.98E-08
    12 OT DIIS     0.15E+00    0.5     0.00000595      -107.6830562483 -5.15E-09
    13 OT DIIS     0.15E+00    0.5     0.00000256      -107.6830562543 -5.98E-09

  *** SCF run converged in    13 steps ***


  Electronic density on regular grids:        -65.9999999997        0.0000000003
  Core density on regular grids:               65.9999999958       -0.0000000042
  Total charge density on r-space grids:       -0.0000000039
  Total charge density g-space grids:          -0.0000000039

  Overlap energy of the core charge distribution:               0.00000337509648
  Self energy of the core charge distribution:               -264.05251484933058
  Core Hamiltonian energy:                                     78.79771141489687
  Hartree energy:                                             107.90353354177770
  Exchange-correlation energy:                                -30.30770963665177
  Dispersion energy:                                           -0.02408010007424

  Total energy:                                              -107.68305625428555

 ENERGY| Total FORCE_EVAL ( QS ) energy (a.u.):             -107.683056255512241


 --------  Informations at step =    12 ------------
  Optimization Method        =                 BFGS
  Total Energy               =      -107.6830562555
  Real energy change         =        -0.0220953007
  Predicted change in energy =        -0.0205440604
  Scaling factor             =         0.9619295597
  Step size                  =         0.2352034534
  Trust radius               =         0.3779452266
  Decrease in energy         =                  YES
  Used time                  =                7.180

  Convergence check :
  Max. step size             =         0.2352034534
  Conv. limit for step size  =         0.0030000000
  Convergence in step size   =                   NO
  RMS step size              =         0.0600656331
  Conv. limit for RMS step   =         0.0015000000
  Convergence in RMS step    =                   NO
  Max. gradient              =         0.0703558096
  Conv. limit for gradients  =         0.0004500000
  Conv. for gradients        =                   NO
  RMS gradient               =         0.0202305953
  Conv. limit for RMS grad.  =         0.0003000000
  Conv. for gradients        =                   NO
 ---------------------------------------------------

 --------------------------
 OPTIMIZATION STEP:     13
 --------------------------

 Number of electrons:                                                         66
 Number of occupied orbitals:                                                 33
 Number of molecular orbitals:                                                33

 Number of orbital functions:                                                209
 Number of independent orbital functions:                                    209

 Extrapolation method: ASPC


 SCF WAVEFUNCTION OPTIMIZATION

  ----------------------------------- OT ---------------------------------------
  Minimizer      : DIIS                : direct inversion
                                         in the iterative subspace
                                         using   7 DIIS vectors
                                         safer DIIS on
  Preconditioner : FULL_ALL            : diagonalization, state selective
  Precond_solver : DEFAULT
  stepsize       :    0.15000000                  energy_gap     :    0.08000000
  eps_taylor     :   0.10000E-15                  max_taylor     :             4
[...]
  Convergence in RMS step    =                   NO
  Max. gradient              =         0.0048186231
  Conv. limit for gradients  =         0.0004500000
  Conv. for gradients        =                   NO
  RMS gradient               =         0.0013166612
  Conv. limit for RMS grad.  =         0.0003000000
  Conv. for gradients        =                   NO
 ---------------------------------------------------

 *** MAXIMUM NUMBER OF OPTIMIZATION STEPS REACHED ***
 ***        EXITING GEOMETRY OPTIMIZATION         ***

 -------------------------------------------------------------------------------
 -                                                                             -
 -                                DBCSR STATISTICS                             -
 -                                                                             -
 -------------------------------------------------------------------------------
 COUNTER                                    TOTAL       BLAS       SMM       ACC
 flops     5 x     1 x     1                20080       0.0%    100.0%      0.0%
 flops     1 x     1 x     1                79412       0.0%    100.0%      0.0%
 flops    13 x     1 x     1                84838       0.0%    100.0%      0.0%
 flops    20 x     1 x     1               854400       0.0%    100.0%      0.0%
 flops     1 x     1 x     5              1387120       0.0%    100.0%      0.0%
 flops    49 x     1 x     1              2093280       0.0%    100.0%      0.0%
 flops     1 x     1 x    32              2541184       0.0%    100.0%      0.0%
 flops     1 x    32 x     1              2541184       0.0%    100.0%      0.0%
 flops    32 x     1 x     1              2541184       0.0%    100.0%      0.0%
 flops    62 x     1 x     1              2648640       0.0%    100.0%      0.0%
 flops    78 x     1 x     1              3332160       0.0%    100.0%      0.0%
 flops     1 x     1 x    13              5860582       0.0%    100.0%      0.0%
 flops     5 x     5 x     1              8593200       0.0%    100.0%      0.0%
 flops    20 x     1 x     5             14473600       0.0%    100.0%      0.0%
 flops     5 x    32 x    32             20561920       0.0%    100.0%      0.0%
 flops    20 x     1 x    32             27340800       0.0%    100.0%      0.0%
 flops    20 x    32 x     1             27340800       0.0%    100.0%      0.0%
 flops     5 x    13 x     1             32272240       0.0%    100.0%      0.0%
 flops    13 x     5 x     1             32272240       0.0%    100.0%      0.0%
 flops    49 x     1 x     5             35460320       0.0%    100.0%      0.0%
 flops     5 x     1 x     5             36137600       0.0%    100.0%      0.0%
 flops     1 x    32 x     5             44387840       0.0%    100.0%      0.0%
 flops    32 x     1 x     5             44387840       0.0%    100.0%      0.0%
 flops    62 x     1 x     5             44868160       0.0%    100.0%      0.0%
 flops    78 x     1 x     5             56447040       0.0%    100.0%      0.0%
 flops    20 x     1 x    13             61150960       0.0%    100.0%      0.0%
 flops    49 x     1 x    32             66984960       0.0%    100.0%      0.0%
 flops    49 x    32 x     1             66984960       0.0%    100.0%      0.0%
 flops    32 x    32 x     1             81317888       0.0%    100.0%      0.0%
 flops     1 x    32 x    32             81317888       0.0%    100.0%      0.0%
 flops    32 x     1 x    32             81317888       0.0%    100.0%      0.0%
 flops    62 x    32 x     1             84756480       0.0%    100.0%      0.0%
 flops    62 x     1 x    32             84756480       0.0%    100.0%      0.0%
 flops    13 x    32 x    32             86874112       0.0%    100.0%      0.0%
 flops    78 x     1 x    32            106629120       0.0%    100.0%      0.0%
 flops    78 x    32 x     1            106629120       0.0%    100.0%      0.0%
 flops    13 x    13 x     1            146838692       0.0%    100.0%      0.0%
 flops    49 x     1 x    13            149819852       0.0%    100.0%      0.0%
 flops     5 x     1 x    13            152681360       0.0%    100.0%      0.0%
 flops    13 x     1 x     5            152681360       0.0%    100.0%      0.0%
 flops     1 x    32 x    13            187538624       0.0%    100.0%      0.0%
 flops    32 x     1 x    13            187538624       0.0%    100.0%      0.0%
 flops    62 x     1 x    13            189567976       0.0%    100.0%      0.0%
 flops    78 x     1 x    13            238488744       0.0%    100.0%      0.0%
 flops     5 x     5 x    32            274982400       0.0%    100.0%      0.0%
 flops    20 x    32 x     5            463155200       0.0%    100.0%      0.0%
 flops    13 x     1 x    13            645078746       0.0%    100.0%      0.0%
 flops    20 x    32 x    32            874905600       0.0%    100.0%      0.0%
 flops     5 x    13 x    32           1032711680       0.0%    100.0%      0.0%
 flops    13 x     5 x    32           1032711680       0.0%    100.0%      0.0%
 flops    49 x    32 x     5           1134730240       0.0%    100.0%      0.0%
 flops     5 x    32 x     5           1156403200       0.0%    100.0%      0.0%
 flops    32 x    32 x     5           1420410880       0.0%    100.0%      0.0%
 flops    62 x    32 x     5           1435781120       0.0%    100.0%      0.0%
 flops    78 x    32 x     5           1806305280       0.0%    100.0%      0.0%
 flops    20 x    32 x    13           1956830720       0.0%    100.0%      0.0%
 flops    49 x    32 x    32           2143518720       0.0%    100.0%      0.0%
 flops    32 x    32 x    32           2602172416       0.0%    100.0%      0.0%
 flops    62 x    32 x    32           2712207360       0.0%    100.0%      0.0%
 flops    78 x    32 x    32           3412131840       0.0%    100.0%      0.0%
 flops    13 x    13 x    32           4698838144       0.0%    100.0%      0.0%
 flops    49 x    32 x    13           4794235264       0.0%    100.0%      0.0%
 flops     5 x    32 x    13           4885803520       0.0%    100.0%      0.0%
 flops    13 x    32 x     5           4885803520       0.0%    100.0%      0.0%
 flops    32 x    32 x    13           6001235968       0.0%    100.0%      0.0%
 flops    62 x    32 x    13           6066175232       0.0%    100.0%      0.0%
 flops    78 x    32 x    13           7631639808       0.0%    100.0%      0.0%
 flops    13 x    32 x    13          20642519872       0.0%    100.0%      0.0%
 flops inhomo. stacks                           0       0.0%      0.0%      0.0%
 flops total                        86.472691E+09       0.0%    100.0%      0.0%
 flops max/rank                     30.108556E+09       0.0%    100.0%      0.0%
 matmuls inhomo. stacks                         0       0.0%      0.0%      0.0%
 matmuls total                           15812168       0.0%    100.0%      0.0%
 number of processed stacks               7334232       0.0%    100.0%      0.0%
 average stack size                                     0.0       2.2       0.0
 marketing flops                    93.120545E+09
 -------------------------------------------------------------------------------
 # multiplications                         104020
 max memory usage/rank             536.879104E+06
 # max total images/rank                        7
 # max 3D layers                                1
 # MPI messages exchanged               273780640
 MPI messages size (bytes):
  total size                       136.784994E+09
  min size                           0.000000E+00
  max size                          19.968000E+03
  average size                     499.615295E+00
 MPI breakdown and total messages size (bytes):
             size <=      128           239348152                577317760
       128 < size <=     8192            33403473             119712059136
      8192 < size <=    32768             1029015              16595953920
     32768 < size <=   131072                   0                        0
    131072 < size <=  4194304                   0                        0
   4194304 < size <= 16777216                   0                        0
  16777216 < size                               0                        0
 -------------------------------------------------------------------------------

 *** WARNING in dbcsr_mm.F:295 :: Using a non-square number of MPI ranks ***
 *** might lead to poor performance. Used ranks: 56 Suggested: 49 121    ***

 -------------------------------------------------------------------------------
 -                                                                             -
 -                      DBCSR MESSAGE PASSING PERFORMANCE                      -
 -                                                                             -
 -------------------------------------------------------------------------------
 ROUTINE             CALLS      AVE VOLUME [Bytes]
 MP_Group             7080
 MP_Bcast               69                     12.
 MP_Allreduce       548186                      8.
 MP_Alltoall        379760                   7718.
 MP_Wait           9153760
 MP_ISend         10348162                    700.
 MP_IRecv         10324560                    481.
 MP_Memory        14828752
 -------------------------------------------------------------------------------

 MEMORY| Estimated peak process memory [MiB]                                 513

 -------------------------------------------------------------------------------
 -                                                                             -
 -                         MESSAGE PASSING PERFORMANCE                         -
 -                                                                             -
 -------------------------------------------------------------------------------

 ROUTINE             CALLS      AVE VOLUME [Bytes]
 MP_Group                4
 MP_Bcast            67564                  11615.
 MP_Allreduce       203605                    113.
 MP_Sync              3518
 MP_Alltoall         99251                4864992.
 MP_SendRecv         55220                    194.
 MP_ISendRecv       995060                  37088.
 MP_Wait           1309652
 MP_comm_split        3514
 MP_ISend           240718                 527636.
 MP_IRecv           240718                 527636.
 MP_Recv              6140                   3796.
 -------------------------------------------------------------------------------


 -------------------------------------------------------------------------------
 -                                                                             -
 -                           R E F E R E N C E S                               -
 -                                                                             -
 -------------------------------------------------------------------------------
 
 CP2K version 7.1, the CP2K developers group (2019).
 CP2K is freely available from https://www.cp2k.org/ .

 Schuett, Ole; Messmer, Peter; Hutter, Juerg; VandeVondele, Joost. 
 Electronic Structure Calculations on Graphics Processing Units, John
 Wiley & Sons, Ltd, 173-190 (2016). 
 GPU-Accelerated Sparse Matrix-Matrix Multiplication for
 Linear Scaling Density Functional Theory.
 https://dx.doi.org/10.1002/9781118670712.ch8

 Borstnik, U; VandeVondele, J; Weber, V; Hutter, J. 
 PARALLEL COMPUTING, 40 (5-6), 47-58 (2014). 
 Sparse matrix multiplication: The distributed block-compressed sparse
 row library.
 https://dx.doi.org/10.1016/j.parco.2014.03.012

 Hutter, J; Iannuzzi, M; Schiffmann, F; VandeVondele, J. 
 WIREs Comput Mol Sci., 4 (1), 15-25 (2014). 
 CP2K: atomistic simulations of condensed matter systems.
 https://dx.doi.org/10.1002/wcms.1159

 Grimme, S; Ehrlich, S; Goerigk, L. 
 JOURNAL OF COMPUTATIONAL CHEMISTRY, 32, 1456 (2011). 
 Effect of the damping function in dispersion corrected density functional theory.
 https://dx.doi.org/10.1002/jcc.21759

 Grimme, S; Antony, J; Ehrlich, S; Krieg, H. 
 JOURNAL OF CHEMICAL PHYSICS, 132 (15), 154104 (2010). 
 A consistent and accurate ab initio parametrization of density
 functional dispersion correction (DFT-D) for the 94 elements H-Pu.
 https://dx.doi.org/10.1063/1.3382344

 VandeVondele, J; Hutter, J. 
 JOURNAL OF CHEMICAL PHYSICS, 127 (11), 114105 (2007). 
 Gaussian basis sets for accurate calculations on molecular systems in
 gas and condensed phases.
 https://dx.doi.org/10.1063/1.2770708

 Krack, M. 
 THEORETICAL CHEMISTRY ACCOUNTS, 114 (1-3), 145-152 (2005). 
 Pseudopotentials for H to Kr optimized for gradient-corrected
 exchange-correlation functionals.
 https://dx.doi.org/10.1007/s00214-005-0655-y

 VandeVondele, J; Krack, M; Mohamed, F; Parrinello, M; Chassaing, T;
 Hutter, J. COMPUTER PHYSICS COMMUNICATIONS, 167 (2), 103-128 (2005). 
 QUICKSTEP: Fast and accurate density functional calculations using a
 mixed Gaussian and plane waves approach.
 https://dx.doi.org/10.1016/j.cpc.2004.12.014

 Frigo, M; Johnson, SG. 
 PROCEEDINGS OF THE IEEE, 93 (2), 216-231 (2005). 
 The design and implementation of FFTW3.
 https://dx.doi.org/10.1109/JPROC.2004.840301

 Kolafa, J. 
 JOURNAL OF COMPUTATIONAL CHEMISTRY, 25 (3), 335-342 (2004). 
 Time-reversible always stable predictor-corrector method for molecular dynamics of polarizable molecules.
 https://dx.doi.org/10.1002/jcc.10385

 VandeVondele, J; Hutter, J. 
 JOURNAL OF CHEMICAL PHYSICS, 118 (10), 4365-4369 (2003). 
 An efficient orbital transformation method for electronic structure
 calculations.
 https://dx.doi.org/10.1063/1.1543154

 Hartwigsen, C; Goedecker, S; Hutter, J. 
 PHYSICAL REVIEW B, 58 (7), 3641-3662 (1998). 
 Relativistic separable dual-space Gaussian pseudopotentials from H to Rn.
 https://dx.doi.org/10.1103/PhysRevB.58.3641

 Lippert, G; Hutter, J; Parrinello, M. 
 MOLECULAR PHYSICS, 92 (3), 477-487 (1997). 
 A hybrid Gaussian and plane wave density functional scheme.
 https://dx.doi.org/10.1080/002689797170220

 Perdew, JP; Burke, K; Ernzerhof, M. 
 PHYSICAL REVIEW LETTERS, 77 (18), 3865-3868 (1996). 
 Generalized gradient approximation made simple.
 https://dx.doi.org/10.1103/PhysRevLett.77.3865

 Goedecker, S; Teter, M; Hutter, J. 
 PHYSICAL REVIEW B, 54 (3), 1703-1710 (1996). 
 Separable dual-space Gaussian pseudopotentials.
 https://dx.doi.org/10.1103/PhysRevB.54.1703


 -------------------------------------------------------------------------------
 -                                                                             -
 -                                T I M I N G                                  -
 -                                                                             -
 -------------------------------------------------------------------------------
 SUBROUTINE                       CALLS  ASD         SELF TIME        TOTAL TIME
                                MAXIMUM       AVERAGE  MAXIMUM  AVERAGE  MAXIMUM
 CP2K                                 1  1.0    0.081    0.088 2301.898 2301.905
 cp_geo_opt                           1  2.0    0.006    0.006 2301.194 2301.202
 geoopt_bfgs                          1  3.0    0.042    0.044 2301.189 2301.196
 cp_eval_at                         251  4.0    0.039    0.059 2296.973 2296.979
 qs_forces                          251  5.0    0.027    0.031 2296.915 2296.922
 qs_energies                        251  6.0    0.022    0.023 2194.757 2194.769
 scf_env_do_scf                     251  7.0    0.012    0.015 2142.899 2142.907
 scf_env_do_scf_inner_loop         4272  8.0    0.120    0.336 2046.223 2046.306
 rebuild_ks_matrix                 4523  9.8    0.010    0.011 1612.979 1613.598
 qs_ks_build_kohn_sham_matrix      4523 10.8    0.503    0.563 1612.969 1613.587
 qs_ks_update_qs_env               4523  9.0    0.029    0.035 1512.544 1513.129
 pw_transfer                      86188 13.5    6.342    8.049 1185.555 1311.085
 fft_wrap_pw1pw2                  77142 14.6    0.855    1.046 1164.655 1288.615
 fft_wrap_pw1pw2_200              50004 15.7   90.375   99.350 1130.563 1245.041
 fft3d_ps                         77142 16.6  479.179  505.797  904.449 1039.044
 qs_vxc_create                     4523 11.8    0.109    0.146  978.643  995.393
 xc_vxc_pw_create                  4523 12.8    7.959    9.952  978.534  995.332
 rs_pw_transfer                   36686 13.4    0.524    0.612  538.597  552.352
 xc_rho_set_and_dset_create        4523 13.8    5.733    6.525  471.540  540.311
 qs_rho_update_rho                 4523  9.1    0.019    0.025  530.533  530.568
 calculate_rho_elec                4523 10.1   19.677   75.366  530.514  530.548
 mp_alltoall_z22v                 77142 18.6  314.271  516.274  314.271  516.274
 density_rs2pw                     4523 11.1    0.244    0.303  466.453  482.856
 sum_up_and_integrate              4523 11.8    2.817    3.000  456.462  457.457
 integrate_v_rspace                4523 12.8   11.806   51.773  453.641  455.115
 potential_pw2rs                   4523 13.8    0.343    0.385  400.295  401.624
 yz_to_x                          31912 17.2   37.015   41.515  223.166  366.966
 x_to_yz                          36184 18.0   70.754   76.096  198.465  237.019
 rs_pw_transfer_PW2RS_200          4774 15.6  127.139  133.699  205.625  218.554
 rs_pw_transfer_RS2PW_200          4774 12.9  111.399  121.167  185.394  204.281
 xc_functional_eval                4523 14.8    0.049    0.062  116.297  184.622
 pbe_lda_eval                      4523 15.8  116.248  184.568  116.248  184.568
 mp_waitany                      240718 15.4  164.980  180.451  164.980  180.451
 qs_scf_new_mos                    4272  9.0    0.015    0.019  119.067  119.347
 qs_scf_loop_do_ot                 4272 10.0    0.017    0.019  119.052  119.333
 dbcsr_multiply_generic          104020 14.1    2.664    3.265  116.127  118.006
 ot_scf_mini                       4272 11.0    0.042    0.053  114.064  114.268
 qs_ks_update_qs_env_forces         251  6.0    0.001    0.001  100.597  100.632
 pw_scatter_p                     40707 17.1   84.011   96.591   84.011   96.591
 init_scf_loop                      251  8.0    0.008    0.009   96.462   96.464
 pw_gather_p                      36435 16.0   81.945   93.683   81.945   93.683
 rs_pw_transfer_PW2RS_70           4523 15.8   31.686   33.159   66.982   80.482
 ot_mini                           4272 12.0    0.018    0.021   78.346   78.644
 pw_derive                        27138 14.3   69.468   76.254   69.468   76.254
 rs_grid_zero                     27640 12.9   68.947   71.932   68.947   71.932
 rs_pw_transfer_RS2PW_70           4523 13.1   25.749   28.677   52.966   66.665
 qs_ot_get_derivative              4272 13.0    0.020    0.024   65.474   65.678
 multiply_cannon                 104020 15.1   14.067   15.557   50.088   57.346
 pw_copy                          49753 14.4   48.944   54.351   48.944   54.351
 mp_alltoall_d11v                 89210 15.4   43.536   54.047   43.536   54.047
 rs_distribute_matrix              9297 12.4    0.283    0.804   43.029   53.282
 pw_poisson_solve                  4523 11.8   30.408   30.749   46.875   46.880
 make_m2s                        208040 15.1    2.982    3.666   45.283   46.501
 -------------------------------------------------------------------------------

 The number of warnings for this run is : 2
 
 -------------------------------------------------------------------------------
  **** **** ******  **  PROGRAM ENDED AT                 2023-01-23 03:41:38.571
 ***** ** ***  *** **   PROGRAM RAN ON            c207-015.frontera.tacc.utexas.
 **    ****   ******    PROGRAM RAN BY                                     jiaao
 ***** **    ** ** **   PROGRAM PROCESS ID                                  8278
  **** **  *******  **  PROGRAM STOPPED IN /scratch1/08197/jiaao/jiaao/GCN/train
                                           ingset/mol_smi26
TACC:  Shutdown complete. Exiting. 
